TITLE="Default"
VARIABLES="X" "Y" "Z" 
ZONE I=21 J=11 DATAPACKING=BLOCK T="Timestep -1 of 0"
SOLUTIONTIME=0.000000 STRANDID=1
0.000000	0.218301	0.436910	0.654405	0.869629	1.081681	1.289896	1.493822	1.693194	1.887917	2.078035	2.263718	2.445238	2.622955	2.797301	2.968770	3.137906	3.305293	3.471551	3.637329	3.803299	0.000000	0.224590	0.449046	0.671920	0.892050	1.108541	1.320742	1.528221	1.730742	1.928235	2.120774	2.308555	2.491878	2.671127	2.846756	3.019277	3.189252	3.357277	3.523984	3.690029	3.856087	0.000000	0.230879	0.461181	0.689435	0.914472	1.135401	1.351587	1.562621	1.768290	1.968553	2.163512	2.353392	2.538518	2.719299	2.896210	3.069784	3.240597	3.409261	3.576417	3.742728	3.908874	0.000000	0.237168	0.473316	0.706950	0.936894	1.162261	1.382433	1.597021	1.805838	2.008871	2.206251	2.398229	2.585158	2.767471	2.945665	3.120291	3.291943	3.461246	3.628850	3.795427	3.961662	0.000000	0.243457	0.485451	0.724466	0.959315	1.189121	1.413278	1.631420	1.843386	2.049189	2.248989	2.443066	2.631798	2.815643	2.995119	3.170798	3.343289	3.513230	3.681283	3.848126	4.014449	0.000000	0.249746	0.497587	0.741981	0.981737	1.215981	1.444124	1.665820	1.880933	2.089507	2.291727	2.487903	2.678438	2.863814	3.044574	3.221305	3.394635	3.565214	3.733716	3.900825	4.067236	0.000000	0.256035	0.509722	0.759496	1.004158	1.242842	1.474970	1.700219	1.918481	2.129825	2.334466	2.532740	2.725078	2.911986	3.094028	3.271812	3.445981	3.617199	3.786149	3.953524	4.120024	0.000000	0.262324	0.521857	0.777011	1.026580	1.269702	1.505815	1.734619	1.956029	2.170143	2.377204	2.577577	2.771718	2.960158	3.143483	3.322319	3.497326	3.669183	3.838582	4.006224	4.172811	0.000000	0.268613	0.533993	0.794527	1.049002	1.296562	1.536661	1.769018	1.993577	2.210460	2.419943	2.622414	2.818358	3.008330	3.192937	3.372826	3.548672	3.721167	3.891015	4.058923	4.225598	0.000000	0.274902	0.546128	0.812042	1.071423	1.323422	1.567506	1.803418	2.031125	2.250778	2.462681	2.667251	2.864998	3.056502	3.242391	3.423333	3.600018	3.773152	3.943448	4.111622	4.278386	0.000000	0.281191	0.558263	0.829557	1.093845	1.350282	1.598352	1.837818	2.068672	2.291096	2.505419	2.712088	2.911638	3.104674	3.291846	3.473840	3.651364	3.825136	3.995881	4.164321	4.331173	
0.500000	0.507342	0.528136	0.561603	0.606898	0.663143	0.729446	0.804930	0.888738	0.980052	1.078096	1.182137	1.291491	1.405519	1.523626	1.645254	1.769880	1.897012	2.026180	2.156929	2.288817	0.400000	0.407540	0.428878	0.463161	0.509478	0.566890	0.634454	0.711245	0.796370	0.888976	0.988262	1.093474	1.203910	1.318917	1.437889	1.560260	1.685503	1.813118	1.942633	2.073592	2.205550	0.300000	0.307739	0.329620	0.364719	0.412059	0.470638	0.539462	0.617561	0.704001	0.797900	0.898428	1.004811	1.116328	1.232314	1.352152	1.475267	1.601125	1.729224	1.859086	1.990254	2.122282	0.200000	0.207937	0.230361	0.266277	0.314639	0.374386	0.444470	0.523876	0.611633	0.706824	0.808595	0.916148	1.028747	1.145712	1.266415	1.390274	1.516748	1.645330	1.775539	1.906916	2.039014	0.100000	0.108135	0.131103	0.167835	0.217219	0.278134	0.349478	0.430192	0.519264	0.615749	0.718761	0.827485	0.941166	1.059110	1.180678	1.305281	1.432371	1.561436	1.691992	1.823579	1.955746	0.000000	0.008333	0.031845	0.069394	0.119799	0.181881	0.254486	0.336507	0.426896	0.524673	0.628928	0.738822	0.853584	0.972507	1.094941	1.220288	1.347993	1.477541	1.608445	1.740241	1.872478	-0.100000	-0.091469	-0.067413	-0.029048	0.022380	0.085629	0.159495	0.242823	0.334528	0.433597	0.539094	0.650159	0.766003	0.885905	1.009204	1.135294	1.263616	1.393647	1.524899	1.656903	1.789211	-0.200000	-0.191271	-0.166671	-0.127490	-0.075040	-0.010623	0.064503	0.149138	0.242159	0.342521	0.449260	0.561496	0.678422	0.799302	0.923467	1.050301	1.179239	1.309753	1.441352	1.573566	1.705943	-0.300000	-0.291073	-0.265929	-0.225932	-0.172460	-0.106875	-0.030489	0.055454	0.149791	0.251445	0.359427	0.472833	0.590840	0.712700	0.837730	0.965308	1.094861	1.225859	1.357805	1.490228	1.622675	-0.400000	-0.390874	-0.365188	-0.324374	-0.269880	-0.203127	-0.125481	-0.038231	0.057422	0.160369	0.269593	0.384170	0.503259	0.626098	0.751993	0.880315	1.010484	1.141965	1.274258	1.406890	1.539407	-0.500000	-0.490676	-0.464446	-0.422815	-0.367300	-0.299380	-0.220473	-0.131915	-0.034946	0.069293	0.179760	0.295507	0.415678	0.539495	0.666256	0.795322	0.926106	1.058071	1.190711	1.323553	1.456139	
0.000000	0.007342	0.028136	0.061603	0.106898	0.163143	0.229446	0.304930	0.388738	0.480052	0.578096	0.682137	0.791491	0.905519	1.023626	1.145254	1.269880	1.397012	1.526180	1.656929	1.788817	0.000000	0.007540	0.028878	0.063161	0.109478	0.166890	0.234454	0.311245	0.396370	0.488976	0.588262	0.693474	0.803910	0.918917	1.037889	1.160260	1.285503	1.413118	1.542633	1.673592	1.805550	0.000000	0.007739	0.029620	0.064719	0.112059	0.170638	0.239462	0.317561	0.404001	0.497900	0.598428	0.704811	0.816328	0.932314	1.052152	1.175267	1.301125	1.429224	1.559086	1.690254	1.822282	0.000000	0.007937	0.030361	0.066277	0.114639	0.174386	0.244470	0.323876	0.411633	0.506824	0.608595	0.716148	0.828747	0.945712	1.066415	1.190274	1.316748	1.445330	1.575539	1.706916	1.839014	0.000000	0.008135	0.031103	0.067835	0.117219	0.178134	0.249478	0.330192	0.419264	0.515749	0.618761	0.727485	0.841166	0.959110	1.080678	1.205281	1.332371	1.461436	1.591992	1.723579	1.855746	0.000000	0.008333	0.031845	0.069394	0.119799	0.181881	0.254486	0.336507	0.426896	0.524673	0.628928	0.738822	0.853584	0.972507	1.094941	1.220288	1.347993	1.477541	1.608445	1.740241	1.872478	0.000000	0.008531	0.032587	0.070952	0.122380	0.185629	0.259495	0.342823	0.434528	0.533597	0.639094	0.750159	0.866003	0.985905	1.109204	1.235294	1.363616	1.493647	1.624899	1.756903	1.889211	0.000000	0.008729	0.033329	0.072510	0.124960	0.189377	0.264503	0.349138	0.442159	0.542521	0.649260	0.761496	0.878422	0.999302	1.123467	1.250301	1.379239	1.509753	1.641352	1.773566	1.905943	0.000000	0.008927	0.034071	0.074068	0.127540	0.193125	0.269511	0.355454	0.449791	0.551445	0.659427	0.772833	0.890840	1.012700	1.137730	1.265308	1.394861	1.525859	1.657805	1.790228	1.922675	0.000000	0.009126	0.034812	0.075626	0.130120	0.196873	0.274519	0.361769	0.457422	0.560369	0.669593	0.784170	0.903259	1.026098	1.151993	1.280315	1.410484	1.541965	1.674258	1.806890	1.939407	0.000000	0.009324	0.035554	0.077185	0.132700	0.200620	0.279527	0.368085	0.465054	0.569293	0.679760	0.795507	0.915678	1.039495	1.166256	1.295322	1.426106	1.558071	1.690711	1.823553	1.956139	
