TITLE="Wing-tip dynamic response"
VARIABLES="T" "PX" "PY" "PZ" "RX" "RY" "RZ"
ZONE I=2001 T="dyn"
  0.00000e+00  5.00000e+00  0.00000e+00  0.00000e+00  0.00000e+00  0.00000e+00  0.00000e+00 
  1.00000e-03  5.00000e+00  0.00000e+00  1.15184e-08  0.00000e+00 -1.98211e-08  0.00000e+00 
  2.00000e-03  5.00000e+00  0.00000e+00  7.93005e-08  0.00000e+00 -1.18519e-07  0.00000e+00 
  3.00000e-03  5.00000e+00  0.00000e+00  2.85693e-07  0.00000e+00 -3.74513e-07  0.00000e+00 
  4.00000e-03  5.00000e+00  0.00000e+00  7.39717e-07  0.00000e+00 -8.66102e-07  0.00000e+00 
  5.00000e-03  5.00000e+00  0.00000e+00  1.57045e-06  0.00000e+00 -1.67140e-06  0.00000e+00 
  6.00000e-03  5.00000e+00  0.00000e+00  2.92419e-06  0.00000e+00 -2.86824e-06  0.00000e+00 
  7.00000e-03  5.00000e+00  0.00000e+00  4.96220e-06  0.00000e+00 -4.53389e-06  0.00000e+00 
  8.00000e-03  5.00000e+00  0.00000e+00  7.85894e-06  0.00000e+00 -6.74419e-06  0.00000e+00 
  9.00000e-03  5.00000e+00  0.00000e+00  1.18010e-05  0.00000e+00 -9.57294e-06  0.00000e+00 
  1.00000e-02  5.00000e+00  0.00000e+00  1.69885e-05  0.00000e+00 -1.30951e-05  0.00000e+00 
  1.10000e-02  5.00000e+00  0.00000e+00  2.36384e-05  0.00000e+00 -1.73972e-05  0.00000e+00 
  1.20000e-02  5.00000e+00  0.00000e+00  3.19850e-05  0.00000e+00 -2.25844e-05  0.00000e+00 
  1.30000e-02  5.00000e+00  0.00000e+00  4.22667e-05  0.00000e+00 -2.87633e-05  0.00000e+00 
  1.40000e-02  5.00000e+00  0.00000e+00  5.47038e-05  0.00000e+00 -3.60013e-05  0.00000e+00 
  1.50000e-02  5.00000e+00  0.00000e+00  6.94903e-05  0.00000e+00 -4.43095e-05  0.00000e+00 
  1.60000e-02  5.00000e+00  0.00000e+00  8.68083e-05  0.00000e+00 -5.36746e-05  0.00000e+00 
  1.70000e-02  5.00000e+00  0.00000e+00  1.06847e-04  0.00000e+00 -6.40909e-05  0.00000e+00 
  1.80000e-02  5.00000e+00  0.00000e+00  1.29805e-04  0.00000e+00 -7.55567e-05  0.00000e+00 
  1.90000e-02  5.00000e+00  0.00000e+00  1.55896e-04  0.00000e+00 -8.80730e-05  0.00000e+00 
  2.00000e-02  5.00000e+00  0.00000e+00  1.85357e-04  0.00000e+00 -1.01662e-04  0.00000e+00 
  2.10000e-02  5.00000e+00  0.00000e+00  2.18449e-04  0.00000e+00 -1.16369e-04  0.00000e+00 
  2.20000e-02  5.00000e+00  0.00000e+00  2.55457e-04  0.00000e+00 -1.32255e-04  0.00000e+00 
  2.30000e-02  5.00000e+00  0.00000e+00  2.96685e-04  0.00000e+00 -1.49396e-04  0.00000e+00 
  2.40000e-02  5.00000e+00  0.00000e+00  3.42442e-04  0.00000e+00 -1.67858e-04  0.00000e+00 
  2.50000e-02  5.00000e+00  0.00000e+00  3.93046e-04  0.00000e+00 -1.87690e-04  0.00000e+00 
  2.60000e-02  5.00000e+00  0.00000e+00  4.48833e-04  0.00000e+00 -2.08954e-04  0.00000e+00 
  2.70000e-02  5.00000e+00  0.00000e+00  5.10174e-04  0.00000e+00 -2.31755e-04  0.00000e+00 
  2.80000e-02  5.00000e+00  0.00000e+00  5.77478e-04  0.00000e+00 -2.56246e-04  0.00000e+00 
  2.90000e-02  5.00000e+00  0.00000e+00  6.51178e-04  0.00000e+00 -2.82598e-04  0.00000e+00 
  3.00000e-02  5.00000e+00  0.00000e+00  7.31712e-04  0.00000e+00 -3.10983e-04  0.00000e+00 
  3.10000e-02  5.00000e+00  0.00000e+00  8.19524e-04  0.00000e+00 -3.41578e-04  0.00000e+00 
  3.20000e-02  5.00000e+00  0.00000e+00  9.15049e-04  0.00000e+00 -3.74557e-04  0.00000e+00 
  3.30000e-02  5.00000e+00  0.00000e+00  1.01870e-03  0.00000e+00 -4.10068e-04  0.00000e+00 
  3.40000e-02  5.00000e+00  0.00000e+00  1.13088e-03  0.00000e+00 -4.48224e-04  0.00000e+00 
  3.50000e-02  5.00000e+00  0.00000e+00  1.25193e-03  0.00000e+00 -4.89116e-04  0.00000e+00 
  3.60000e-02  5.00000e+00  0.00000e+00  1.38222e-03  0.00000e+00 -5.32820e-04  0.00000e+00 
  3.70000e-02  5.00000e+00  0.00000e+00  1.52207e-03  0.00000e+00 -5.79424e-04  0.00000e+00 
  3.80000e-02  5.00000e+00  0.00000e+00  1.67183e-03  0.00000e+00 -6.29028e-04  0.00000e+00 
  3.90000e-02  5.00000e+00  0.00000e+00  1.83181e-03  0.00000e+00 -6.81718e-04  0.00000e+00 
  4.00000e-02  5.00000e+00  0.00000e+00  2.00228e-03  0.00000e+00 -7.37541e-04  0.00000e+00 
  4.10000e-02  5.00000e+00  0.00000e+00  2.18348e-03  0.00000e+00 -7.96510e-04  0.00000e+00 
  4.20000e-02  5.00000e+00  0.00000e+00  2.37564e-03  0.00000e+00 -8.58626e-04  0.00000e+00 
  4.30000e-02  5.00000e+00  0.00000e+00  2.57895e-03  0.00000e+00 -9.23878e-04  0.00000e+00 
  4.40000e-02  5.00000e+00  0.00000e+00  2.79359e-03  0.00000e+00 -9.92242e-04  0.00000e+00 
  4.50000e-02  5.00000e+00  0.00000e+00  3.01975e-03  0.00000e+00 -1.06370e-03  0.00000e+00 
  4.60000e-02  5.00000e+00  0.00000e+00  3.25761e-03  0.00000e+00 -1.13826e-03  0.00000e+00 
  4.70000e-02  5.00000e+00  0.00000e+00  3.50738e-03  0.00000e+00 -1.21598e-03  0.00000e+00 
  4.80000e-02  5.00000e+00  0.00000e+00  3.76925e-03  0.00000e+00 -1.29691e-03  0.00000e+00 
  4.90000e-02  5.00000e+00  0.00000e+00  4.04345e-03  0.00000e+00 -1.38113e-03  0.00000e+00 
  5.00000e-02  5.00000e+00  0.00000e+00  4.33014e-03  0.00000e+00 -1.46871e-03  0.00000e+00 
  5.10000e-02  5.00000e+00  0.00000e+00  4.62949e-03  0.00000e+00 -1.55967e-03  0.00000e+00 
  5.20000e-02  5.00000e+00  0.00000e+00  4.94167e-03  0.00000e+00 -1.65406e-03  0.00000e+00 
  5.30000e-02  5.00000e+00  0.00000e+00  5.26681e-03  0.00000e+00 -1.75196e-03  0.00000e+00 
  5.40000e-02  5.00000e+00  0.00000e+00  5.60506e-03  0.00000e+00 -1.85342e-03  0.00000e+00 
  5.50000e-02  5.00000e+00  0.00000e+00  5.95654e-03  0.00000e+00 -1.95851e-03  0.00000e+00 
  5.60000e-02  5.00000e+00  0.00000e+00  6.32134e-03  0.00000e+00 -2.06733e-03  0.00000e+00 
  5.70000e-02  4.99999e+00  0.00000e+00  6.69956e-03  0.00000e+00 -2.17993e-03  0.00000e+00 
  5.80000e-02  4.99999e+00  0.00000e+00  7.09123e-03  0.00000e+00 -2.29637e-03  0.00000e+00 
  5.90000e-02  4.99999e+00  0.00000e+00  7.49634e-03  0.00000e+00 -2.41668e-03  0.00000e+00 
  6.00000e-02  4.99999e+00  0.00000e+00  7.91479e-03  0.00000e+00 -2.54080e-03  0.00000e+00 
  6.10000e-02  4.99999e+00  0.00000e+00  8.34647e-03  0.00000e+00 -2.66866e-03  0.00000e+00 
  6.20000e-02  4.99999e+00  0.00000e+00  8.79120e-03  0.00000e+00 -2.80016e-03  0.00000e+00 
  6.30000e-02  4.99999e+00  0.00000e+00  9.24878e-03  0.00000e+00 -2.93522e-03  0.00000e+00 
  6.40000e-02  4.99999e+00  0.00000e+00  9.71897e-03  0.00000e+00 -3.07373e-03  0.00000e+00 
  6.50000e-02  4.99999e+00  0.00000e+00  1.02015e-02  0.00000e+00 -3.21560e-03  0.00000e+00 
  6.60000e-02  4.99999e+00  0.00000e+00  1.06961e-02  0.00000e+00 -3.36070e-03  0.00000e+00 
  6.70000e-02  4.99998e+00  0.00000e+00  1.12024e-02  0.00000e+00 -3.50889e-03  0.00000e+00 
  6.80000e-02  4.99998e+00  0.00000e+00  1.17201e-02  0.00000e+00 -3.66002e-03  0.00000e+00 
  6.90000e-02  4.99998e+00  0.00000e+00  1.22487e-02  0.00000e+00 -3.81395e-03  0.00000e+00 
  7.00000e-02  4.99998e+00  0.00000e+00  1.27878e-02  0.00000e+00 -3.97047e-03  0.00000e+00 
  7.10000e-02  4.99998e+00  0.00000e+00  1.33370e-02  0.00000e+00 -4.12943e-03  0.00000e+00 
  7.20000e-02  4.99998e+00  0.00000e+00  1.38959e-02  0.00000e+00 -4.29067e-03  0.00000e+00 
  7.30000e-02  4.99997e+00  0.00000e+00  1.44640e-02  0.00000e+00 -4.45410e-03  0.00000e+00 
  7.40000e-02  4.99997e+00  0.00000e+00  1.50408e-02  0.00000e+00 -4.61963e-03  0.00000e+00 
  7.50000e-02  4.99997e+00  0.00000e+00  1.56260e-02  0.00000e+00 -4.78717e-03  0.00000e+00 
  7.60000e-02  4.99997e+00  0.00000e+00  1.62191e-02  0.00000e+00 -4.95663e-03  0.00000e+00 
  7.70000e-02  4.99997e+00  0.00000e+00  1.68195e-02  0.00000e+00 -5.12791e-03  0.00000e+00 
  7.80000e-02  4.99996e+00  0.00000e+00  1.74267e-02  0.00000e+00 -5.30086e-03  0.00000e+00 
  7.90000e-02  4.99996e+00  0.00000e+00  1.80402e-02  0.00000e+00 -5.47538e-03  0.00000e+00 
  8.00000e-02  4.99996e+00  0.00000e+00  1.86593e-02  0.00000e+00 -5.65130e-03  0.00000e+00 
  8.10000e-02  4.99996e+00  0.00000e+00  1.92834e-02  0.00000e+00 -5.82847e-03  0.00000e+00 
  8.20000e-02  4.99995e+00  0.00000e+00  1.99119e-02  0.00000e+00 -6.00673e-03  0.00000e+00 
  8.30000e-02  4.99995e+00  0.00000e+00  2.05441e-02  0.00000e+00 -6.18595e-03  0.00000e+00 
  8.40000e-02  4.99995e+00  0.00000e+00  2.11793e-02  0.00000e+00 -6.36595e-03  0.00000e+00 
  8.50000e-02  4.99994e+00  0.00000e+00  2.18167e-02  0.00000e+00 -6.54650e-03  0.00000e+00 
  8.60000e-02  4.99994e+00  0.00000e+00  2.24555e-02  0.00000e+00 -6.72733e-03  0.00000e+00 
  8.70000e-02  4.99994e+00  0.00000e+00  2.30947e-02  0.00000e+00 -6.90816e-03  0.00000e+00 
  8.80000e-02  4.99993e+00  0.00000e+00  2.37336e-02  0.00000e+00 -7.08866e-03  0.00000e+00 
  8.90000e-02  4.99993e+00  0.00000e+00  2.43711e-02  0.00000e+00 -7.26854e-03  0.00000e+00 
  9.00000e-02  4.99993e+00  0.00000e+00  2.50064e-02  0.00000e+00 -7.44746e-03  0.00000e+00 
  9.10000e-02  4.99992e+00  0.00000e+00  2.56384e-02  0.00000e+00 -7.62514e-03  0.00000e+00 
  9.20000e-02  4.99992e+00  0.00000e+00  2.62663e-02  0.00000e+00 -7.80128e-03  0.00000e+00 
  9.30000e-02  4.99991e+00  0.00000e+00  2.68891e-02  0.00000e+00 -7.97560e-03  0.00000e+00 
  9.40000e-02  4.99991e+00  0.00000e+00  2.75059e-02  0.00000e+00 -8.14783e-03  0.00000e+00 
  9.50000e-02  4.99991e+00  0.00000e+00  2.81155e-02  0.00000e+00 -8.31765e-03  0.00000e+00 
  9.60000e-02  4.99990e+00  0.00000e+00  2.87172e-02  0.00000e+00 -8.48479e-03  0.00000e+00 
  9.70000e-02  4.99990e+00  0.00000e+00  2.93099e-02  0.00000e+00 -8.64894e-03  0.00000e+00 
  9.80000e-02  4.99989e+00  0.00000e+00  2.98927e-02  0.00000e+00 -8.80986e-03  0.00000e+00 
  9.90000e-02  4.99989e+00  0.00000e+00  3.04646e-02  0.00000e+00 -8.96732e-03  0.00000e+00 
  1.00000e-01  4.99989e+00  0.00000e+00  3.10247e-02  0.00000e+00 -9.12113e-03  0.00000e+00 
  1.01000e-01  4.99988e+00  0.00000e+00  3.15722e-02  0.00000e+00 -9.27108e-03  0.00000e+00 
  1.02000e-01  4.99988e+00  0.00000e+00  3.21061e-02  0.00000e+00 -9.41699e-03  0.00000e+00 
  1.03000e-01  4.99987e+00  0.00000e+00  3.26254e-02  0.00000e+00 -9.55863e-03  0.00000e+00 
  1.04000e-01  4.99987e+00  0.00000e+00  3.31294e-02  0.00000e+00 -9.69581e-03  0.00000e+00 
  1.05000e-01  4.99987e+00  0.00000e+00  3.36169e-02  0.00000e+00 -9.82825e-03  0.00000e+00 
  1.06000e-01  4.99986e+00  0.00000e+00  3.40870e-02  0.00000e+00 -9.95568e-03  0.00000e+00 
  1.07000e-01  4.99986e+00  0.00000e+00  3.45388e-02  0.00000e+00 -1.00778e-02  0.00000e+00 
  1.08000e-01  4.99986e+00  0.00000e+00  3.49713e-02  0.00000e+00 -1.01944e-02  0.00000e+00 
  1.09000e-01  4.99985e+00  0.00000e+00  3.53835e-02  0.00000e+00 -1.03053e-02  0.00000e+00 
  1.10000e-01  4.99985e+00  0.00000e+00  3.57744e-02  0.00000e+00 -1.04100e-02  0.00000e+00 
  1.11000e-01  4.99985e+00  0.00000e+00  3.61431e-02  0.00000e+00 -1.05083e-02  0.00000e+00 
  1.12000e-01  4.99984e+00  0.00000e+00  3.64885e-02  0.00000e+00 -1.06000e-02  0.00000e+00 
  1.13000e-01  4.99984e+00  0.00000e+00  3.68097e-02  0.00000e+00 -1.06847e-02  0.00000e+00 
  1.14000e-01  4.99984e+00  0.00000e+00  3.71056e-02  0.00000e+00 -1.07620e-02  0.00000e+00 
  1.15000e-01  4.99984e+00  0.00000e+00  3.73754e-02  0.00000e+00 -1.08316e-02  0.00000e+00 
  1.16000e-01  4.99983e+00  0.00000e+00  3.76180e-02  0.00000e+00 -1.08932e-02  0.00000e+00 
  1.17000e-01  4.99983e+00  0.00000e+00  3.78327e-02  0.00000e+00 -1.09466e-02  0.00000e+00 
  1.18000e-01  4.99983e+00  0.00000e+00  3.80184e-02  0.00000e+00 -1.09915e-02  0.00000e+00 
  1.19000e-01  4.99983e+00  0.00000e+00  3.81744e-02  0.00000e+00 -1.10276e-02  0.00000e+00 
  1.20000e-01  4.99983e+00  0.00000e+00  3.83001e-02  0.00000e+00 -1.10549e-02  0.00000e+00 
  1.21000e-01  4.99983e+00  0.00000e+00  3.83945e-02  0.00000e+00 -1.10730e-02  0.00000e+00 
  1.22000e-01  4.99983e+00  0.00000e+00  3.84570e-02  0.00000e+00 -1.10819e-02  0.00000e+00 
  1.23000e-01  4.99983e+00  0.00000e+00  3.84870e-02  0.00000e+00 -1.10813e-02  0.00000e+00 
  1.24000e-01  4.99983e+00  0.00000e+00  3.84838e-02  0.00000e+00 -1.10711e-02  0.00000e+00 
  1.25000e-01  4.99983e+00  0.00000e+00  3.84468e-02  0.00000e+00 -1.10512e-02  0.00000e+00 
  1.26000e-01  4.99983e+00  0.00000e+00  3.83755e-02  0.00000e+00 -1.10215e-02  0.00000e+00 
  1.27000e-01  4.99983e+00  0.00000e+00  3.82695e-02  0.00000e+00 -1.09818e-02  0.00000e+00 
  1.28000e-01  4.99983e+00  0.00000e+00  3.81281e-02  0.00000e+00 -1.09323e-02  0.00000e+00 
  1.29000e-01  4.99983e+00  0.00000e+00  3.79510e-02  0.00000e+00 -1.08726e-02  0.00000e+00 
  1.30000e-01  4.99983e+00  0.00000e+00  3.77378e-02  0.00000e+00 -1.08029e-02  0.00000e+00 
  1.31000e-01  4.99983e+00  0.00000e+00  3.74879e-02  0.00000e+00 -1.07228e-02  0.00000e+00 
  1.32000e-01  4.99984e+00  0.00000e+00  3.72010e-02  0.00000e+00 -1.06323e-02  0.00000e+00 
  1.33000e-01  4.99984e+00  0.00000e+00  3.68766e-02  0.00000e+00 -1.05313e-02  0.00000e+00 
  1.34000e-01  4.99984e+00  0.00000e+00  3.65145e-02  0.00000e+00 -1.04196e-02  0.00000e+00 
  1.35000e-01  4.99985e+00  0.00000e+00  3.61143e-02  0.00000e+00 -1.02972e-02  0.00000e+00 
  1.36000e-01  4.99985e+00  0.00000e+00  3.56757e-02  0.00000e+00 -1.01638e-02  0.00000e+00 
  1.37000e-01  4.99985e+00  0.00000e+00  3.51984e-02  0.00000e+00 -1.00195e-02  0.00000e+00 
  1.38000e-01  4.99986e+00  0.00000e+00  3.46823e-02  0.00000e+00 -9.86409e-03  0.00000e+00 
  1.39000e-01  4.99986e+00  0.00000e+00  3.41271e-02  0.00000e+00 -9.69754e-03  0.00000e+00 
  1.40000e-01  4.99987e+00  0.00000e+00  3.35328e-02  0.00000e+00 -9.51976e-03  0.00000e+00 
  1.41000e-01  4.99987e+00  0.00000e+00  3.28992e-02  0.00000e+00 -9.33067e-03  0.00000e+00 
  1.42000e-01  4.99988e+00  0.00000e+00  3.22264e-02  0.00000e+00 -9.13024e-03  0.00000e+00 
  1.43000e-01  4.99988e+00  0.00000e+00  3.15144e-02  0.00000e+00 -8.91849e-03  0.00000e+00 
  1.44000e-01  4.99989e+00  0.00000e+00  3.07633e-02  0.00000e+00 -8.69547e-03  0.00000e+00 
  1.45000e-01  4.99990e+00  0.00000e+00  2.99733e-02  0.00000e+00 -8.46128e-03  0.00000e+00 
  1.46000e-01  4.99990e+00  0.00000e+00  2.91448e-02  0.00000e+00 -8.21604e-03  0.00000e+00 
  1.47000e-01  4.99991e+00  0.00000e+00  2.82778e-02  0.00000e+00 -7.95988e-03  0.00000e+00 
  1.48000e-01  4.99991e+00  0.00000e+00  2.73730e-02  0.00000e+00 -7.69293e-03  0.00000e+00 
  1.49000e-01  4.99992e+00  0.00000e+00  2.64305e-02  0.00000e+00 -7.41535e-03  0.00000e+00 
  1.50000e-01  4.99992e+00  0.00000e+00  2.54509e-02  0.00000e+00 -7.12729e-03  0.00000e+00 
  1.51000e-01  4.99993e+00  0.00000e+00  2.44346e-02  0.00000e+00 -6.82890e-03  0.00000e+00 
  1.52000e-01  4.99994e+00  0.00000e+00  2.33822e-02  0.00000e+00 -6.52037e-03  0.00000e+00 
  1.53000e-01  4.99994e+00  0.00000e+00  2.22942e-02  0.00000e+00 -6.20190e-03  0.00000e+00 
  1.54000e-01  4.99995e+00  0.00000e+00  2.11712e-02  0.00000e+00 -5.87370e-03  0.00000e+00 
  1.55000e-01  4.99995e+00  0.00000e+00  2.00138e-02  0.00000e+00 -5.53597e-03  0.00000e+00 
  1.56000e-01  4.99996e+00  0.00000e+00  1.88227e-02  0.00000e+00 -5.18889e-03  0.00000e+00 
  1.57000e-01  4.99996e+00  0.00000e+00  1.75984e-02  0.00000e+00 -4.83261e-03  0.00000e+00 
  1.58000e-01  4.99997e+00  0.00000e+00  1.63418e-02  0.00000e+00 -4.46727e-03  0.00000e+00 
  1.59000e-01  4.99997e+00  0.00000e+00  1.50535e-02  0.00000e+00 -4.09304e-03  0.00000e+00 
  1.60000e-01  4.99998e+00  0.00000e+00  1.37341e-02  0.00000e+00 -3.71006e-03  0.00000e+00 
  1.61000e-01  4.99998e+00  0.00000e+00  1.23846e-02  0.00000e+00 -3.31852e-03  0.00000e+00 
  1.62000e-01  4.99999e+00  0.00000e+00  1.10056e-02  0.00000e+00 -2.91861e-03  0.00000e+00 
  1.63000e-01  4.99999e+00  0.00000e+00  9.59818e-03  0.00000e+00 -2.51056e-03  0.00000e+00 
  1.64000e-01  4.99999e+00  0.00000e+00  8.16314e-03  0.00000e+00 -2.09463e-03  0.00000e+00 
  1.65000e-01  5.00000e+00  0.00000e+00  6.70147e-03  0.00000e+00 -1.67105e-03  0.00000e+00 
  1.66000e-01  5.00000e+00  0.00000e+00  5.21416e-03  0.00000e+00 -1.24010e-03  0.00000e+00 
  1.67000e-01  5.00000e+00  0.00000e+00  3.70225e-03  0.00000e+00 -8.02042e-04  0.00000e+00 
  1.68000e-01  5.00000e+00  0.00000e+00  2.16682e-03  0.00000e+00 -3.57178e-04  0.00000e+00 
  1.69000e-01  5.00000e+00  0.00000e+00  6.09024e-04  0.00000e+00  9.41524e-05  0.00000e+00 
  1.70000e-01  5.00000e+00  0.00000e+00 -9.69944e-04  0.00000e+00  5.51572e-04  0.00000e+00 
  1.71000e-01  5.00000e+00  0.00000e+00 -2.56885e-03  0.00000e+00  1.01468e-03  0.00000e+00 
  1.72000e-01  5.00000e+00  0.00000e+00 -4.18640e-03  0.00000e+00  1.48307e-03  0.00000e+00 
  1.73000e-01  5.00000e+00  0.00000e+00 -5.82132e-03  0.00000e+00  1.95629e-03  0.00000e+00 
  1.74000e-01  4.99999e+00  0.00000e+00 -7.47227e-03  0.00000e+00  2.43395e-03  0.00000e+00 
  1.75000e-01  4.99999e+00  0.00000e+00 -9.13793e-03  0.00000e+00  2.91562e-03  0.00000e+00 
  1.76000e-01  4.99999e+00  0.00000e+00 -1.08170e-02  0.00000e+00  3.40093e-03  0.00000e+00 
  1.77000e-01  4.99998e+00  0.00000e+00 -1.25081e-02  0.00000e+00  3.88948e-03  0.00000e+00 
  1.78000e-01  4.99998e+00  0.00000e+00 -1.42099e-02  0.00000e+00  4.38090e-03  0.00000e+00 
  1.79000e-01  4.99997e+00  0.00000e+00 -1.59212e-02  0.00000e+00  4.87481e-03  0.00000e+00 
  1.80000e-01  4.99996e+00  0.00000e+00 -1.76404e-02  0.00000e+00  5.37080e-03  0.00000e+00 
  1.81000e-01  4.99996e+00  0.00000e+00 -1.93663e-02  0.00000e+00  5.86850e-03  0.00000e+00 
  1.82000e-01  4.99995e+00  0.00000e+00 -2.10976e-02  0.00000e+00  6.36756e-03  0.00000e+00 
  1.83000e-01  4.99994e+00  0.00000e+00 -2.28328e-02  0.00000e+00  6.86764e-03  0.00000e+00 
  1.84000e-01  4.99993e+00  0.00000e+00 -2.45707e-02  0.00000e+00  7.36842e-03  0.00000e+00 
  1.85000e-01  4.99992e+00  0.00000e+00 -2.63100e-02  0.00000e+00  7.86956e-03  0.00000e+00 
  1.86000e-01  4.99991e+00  0.00000e+00 -2.80493e-02  0.00000e+00  8.37077e-03  0.00000e+00 
  1.87000e-01  4.99990e+00  0.00000e+00 -2.97873e-02  0.00000e+00  8.87170e-03  0.00000e+00 
  1.88000e-01  4.99988e+00  0.00000e+00 -3.15226e-02  0.00000e+00  9.37199e-03  0.00000e+00 
  1.89000e-01  4.99987e+00  0.00000e+00 -3.32538e-02  0.00000e+00  9.87124e-03  0.00000e+00 
  1.90000e-01  4.99986e+00  0.00000e+00 -3.49795e-02  0.00000e+00  1.03691e-02  0.00000e+00 
  1.91000e-01  4.99984e+00  0.00000e+00 -3.66983e-02  0.00000e+00  1.08650e-02  0.00000e+00 
  1.92000e-01  4.99983e+00  0.00000e+00 -3.84087e-02  0.00000e+00  1.13587e-02  0.00000e+00 
  1.93000e-01  4.99981e+00  0.00000e+00 -4.01095e-02  0.00000e+00  1.18498e-02  0.00000e+00 
  1.94000e-01  4.99979e+00  0.00000e+00 -4.17991e-02  0.00000e+00  1.23377e-02  0.00000e+00 
  1.95000e-01  4.99978e+00  0.00000e+00 -4.34761e-02  0.00000e+00  1.28221e-02  0.00000e+00 
  1.96000e-01  4.99976e+00  0.00000e+00 -4.51392e-02  0.00000e+00  1.33025e-02  0.00000e+00 
  1.97000e-01  4.99974e+00  0.00000e+00 -4.67868e-02  0.00000e+00  1.37786e-02  0.00000e+00 
  1.98000e-01  4.99972e+00  0.00000e+00 -4.84176e-02  0.00000e+00  1.42497e-02  0.00000e+00 
  1.99000e-01  4.99970e+00  0.00000e+00 -5.00303e-02  0.00000e+00  1.47156e-02  0.00000e+00 
  2.00000e-01  4.99968e+00  0.00000e+00 -5.16234e-02  0.00000e+00  1.51757e-02  0.00000e+00 
  2.01000e-01  4.99967e+00  0.00000e+00 -5.31956e-02  0.00000e+00  1.56296e-02  0.00000e+00 
  2.02000e-01  4.99965e+00  0.00000e+00 -5.47458e-02  0.00000e+00  1.60771e-02  0.00000e+00 
  2.03000e-01  4.99963e+00  0.00000e+00 -5.62727e-02  0.00000e+00  1.65178e-02  0.00000e+00 
  2.04000e-01  4.99961e+00  0.00000e+00 -5.77751e-02  0.00000e+00  1.69514e-02  0.00000e+00 
  2.05000e-01  4.99958e+00  0.00000e+00 -5.92519e-02  0.00000e+00  1.73776e-02  0.00000e+00 
  2.06000e-01  4.99956e+00  0.00000e+00 -6.07019e-02  0.00000e+00  1.77961e-02  0.00000e+00 
  2.07000e-01  4.99954e+00  0.00000e+00 -6.21242e-02  0.00000e+00  1.82065e-02  0.00000e+00 
  2.08000e-01  4.99952e+00  0.00000e+00 -6.35176e-02  0.00000e+00  1.86088e-02  0.00000e+00 
  2.09000e-01  4.99950e+00  0.00000e+00 -6.48811e-02  0.00000e+00  1.90025e-02  0.00000e+00 
  2.10000e-01  4.99948e+00  0.00000e+00 -6.62137e-02  0.00000e+00  1.93874e-02  0.00000e+00 
  2.11000e-01  4.99946e+00  0.00000e+00 -6.75145e-02  0.00000e+00  1.97634e-02  0.00000e+00 
  2.12000e-01  4.99944e+00  0.00000e+00 -6.87827e-02  0.00000e+00  2.01302e-02  0.00000e+00 
  2.13000e-01  4.99942e+00  0.00000e+00 -7.00171e-02  0.00000e+00  2.04876e-02  0.00000e+00 
  2.14000e-01  4.99940e+00  0.00000e+00 -7.12171e-02  0.00000e+00  2.08352e-02  0.00000e+00 
  2.15000e-01  4.99938e+00  0.00000e+00 -7.23816e-02  0.00000e+00  2.11730e-02  0.00000e+00 
  2.16000e-01  4.99936e+00  0.00000e+00 -7.35099e-02  0.00000e+00  2.15004e-02  0.00000e+00 
  2.17000e-01  4.99934e+00  0.00000e+00 -7.46010e-02  0.00000e+00  2.18174e-02  0.00000e+00 
  2.18000e-01  4.99932e+00  0.00000e+00 -7.56541e-02  0.00000e+00  2.21236e-02  0.00000e+00 
  2.19000e-01  4.99930e+00  0.00000e+00 -7.66684e-02  0.00000e+00  2.24187e-02  0.00000e+00 
  2.20000e-01  4.99929e+00  0.00000e+00 -7.76433e-02  0.00000e+00  2.27024e-02  0.00000e+00 
  2.21000e-01  4.99927e+00  0.00000e+00 -7.85779e-02  0.00000e+00  2.29747e-02  0.00000e+00 
  2.22000e-01  4.99925e+00  0.00000e+00 -7.94717e-02  0.00000e+00  2.32351e-02  0.00000e+00 
  2.23000e-01  4.99924e+00  0.00000e+00 -8.03240e-02  0.00000e+00  2.34836e-02  0.00000e+00 
  2.24000e-01  4.99922e+00  0.00000e+00 -8.11343e-02  0.00000e+00  2.37199e-02  0.00000e+00 
  2.25000e-01  4.99921e+00  0.00000e+00 -8.19019e-02  0.00000e+00  2.39438e-02  0.00000e+00 
  2.26000e-01  4.99919e+00  0.00000e+00 -8.26264e-02  0.00000e+00  2.41552e-02  0.00000e+00 
  2.27000e-01  4.99918e+00  0.00000e+00 -8.33075e-02  0.00000e+00  2.43539e-02  0.00000e+00 
  2.28000e-01  4.99917e+00  0.00000e+00 -8.39447e-02  0.00000e+00  2.45399e-02  0.00000e+00 
  2.29000e-01  4.99915e+00  0.00000e+00 -8.45378e-02  0.00000e+00  2.47132e-02  0.00000e+00 
  2.30000e-01  4.99914e+00  0.00000e+00 -8.50866e-02  0.00000e+00  2.48736e-02  0.00000e+00 
  2.31000e-01  4.99913e+00  0.00000e+00 -8.55909e-02  0.00000e+00  2.50212e-02  0.00000e+00 
  2.32000e-01  4.99912e+00  0.00000e+00 -8.60505e-02  0.00000e+00  2.51560e-02  0.00000e+00 
  2.33000e-01  4.99912e+00  0.00000e+00 -8.64653e-02  0.00000e+00  2.52779e-02  0.00000e+00 
  2.34000e-01  4.99911e+00  0.00000e+00 -8.68352e-02  0.00000e+00  2.53870e-02  0.00000e+00 
  2.35000e-01  4.99910e+00  0.00000e+00 -8.71601e-02  0.00000e+00  2.54833e-02  0.00000e+00 
  2.36000e-01  4.99909e+00  0.00000e+00 -8.74400e-02  0.00000e+00  2.55667e-02  0.00000e+00 
  2.37000e-01  4.99909e+00  0.00000e+00 -8.76750e-02  0.00000e+00  2.56372e-02  0.00000e+00 
  2.38000e-01  4.99909e+00  0.00000e+00 -8.78650e-02  0.00000e+00  2.56950e-02  0.00000e+00 
  2.39000e-01  4.99908e+00  0.00000e+00 -8.80101e-02  0.00000e+00  2.57400e-02  0.00000e+00 
  2.40000e-01  4.99908e+00  0.00000e+00 -8.81103e-02  0.00000e+00  2.57721e-02  0.00000e+00 
  2.41000e-01  4.99908e+00  0.00000e+00 -8.81657e-02  0.00000e+00  2.57914e-02  0.00000e+00 
  2.42000e-01  4.99908e+00  0.00000e+00 -8.81765e-02  0.00000e+00  2.57979e-02  0.00000e+00 
  2.43000e-01  4.99908e+00  0.00000e+00 -8.81426e-02  0.00000e+00  2.57915e-02  0.00000e+00 
  2.44000e-01  4.99908e+00  0.00000e+00 -8.80643e-02  0.00000e+00  2.57721e-02  0.00000e+00 
  2.45000e-01  4.99908e+00  0.00000e+00 -8.79418e-02  0.00000e+00  2.57398e-02  0.00000e+00 
  2.46000e-01  4.99909e+00  0.00000e+00 -8.77752e-02  0.00000e+00  2.56947e-02  0.00000e+00 
  2.47000e-01  4.99909e+00  0.00000e+00 -8.75648e-02  0.00000e+00  2.56367e-02  0.00000e+00 
  2.48000e-01  4.99910e+00  0.00000e+00 -8.73111e-02  0.00000e+00  2.55660e-02  0.00000e+00 
  2.49000e-01  4.99910e+00  0.00000e+00 -8.70142e-02  0.00000e+00  2.54826e-02  0.00000e+00 
  2.50000e-01  4.99911e+00  0.00000e+00 -8.66746e-02  0.00000e+00  2.53866e-02  0.00000e+00 
  2.51000e-01  4.99912e+00  0.00000e+00 -8.62928e-02  0.00000e+00  2.52781e-02  0.00000e+00 
  2.52000e-01  4.99913e+00  0.00000e+00 -8.58692e-02  0.00000e+00  2.51574e-02  0.00000e+00 
  2.53000e-01  4.99914e+00  0.00000e+00 -8.54042e-02  0.00000e+00  2.50244e-02  0.00000e+00 
  2.54000e-01  4.99915e+00  0.00000e+00 -8.48986e-02  0.00000e+00  2.48794e-02  0.00000e+00 
  2.55000e-01  4.99916e+00  0.00000e+00 -8.43527e-02  0.00000e+00  2.47227e-02  0.00000e+00 
  2.56000e-01  4.99917e+00  0.00000e+00 -8.37673e-02  0.00000e+00  2.45544e-02  0.00000e+00 
  2.57000e-01  4.99918e+00  0.00000e+00 -8.31430e-02  0.00000e+00  2.43748e-02  0.00000e+00 
  2.58000e-01  4.99919e+00  0.00000e+00 -8.24803e-02  0.00000e+00  2.41840e-02  0.00000e+00 
  2.59000e-01  4.99921e+00  0.00000e+00 -8.17800e-02  0.00000e+00  2.39824e-02  0.00000e+00 
  2.60000e-01  4.99922e+00  0.00000e+00 -8.10426e-02  0.00000e+00  2.37699e-02  0.00000e+00 
  2.61000e-01  4.99924e+00  0.00000e+00 -8.02688e-02  0.00000e+00  2.35469e-02  0.00000e+00 
  2.62000e-01  4.99925e+00  0.00000e+00 -7.94591e-02  0.00000e+00  2.33135e-02  0.00000e+00 
  2.63000e-01  4.99927e+00  0.00000e+00 -7.86143e-02  0.00000e+00  2.30698e-02  0.00000e+00 
  2.64000e-01  4.99928e+00  0.00000e+00 -7.77349e-02  0.00000e+00  2.28159e-02  0.00000e+00 
  2.65000e-01  4.99930e+00  0.00000e+00 -7.68216e-02  0.00000e+00  2.25522e-02  0.00000e+00 
  2.66000e-01  4.99932e+00  0.00000e+00 -7.58750e-02  0.00000e+00  2.22786e-02  0.00000e+00 
  2.67000e-01  4.99934e+00  0.00000e+00 -7.48956e-02  0.00000e+00  2.19954e-02  0.00000e+00 
  2.68000e-01  4.99935e+00  0.00000e+00 -7.38842e-02  0.00000e+00  2.17026e-02  0.00000e+00 
  2.69000e-01  4.99937e+00  0.00000e+00 -7.28413e-02  0.00000e+00  2.14003e-02  0.00000e+00 
  2.70000e-01  4.99939e+00  0.00000e+00 -7.17677e-02  0.00000e+00  2.10888e-02  0.00000e+00 
  2.71000e-01  4.99941e+00  0.00000e+00 -7.06638e-02  0.00000e+00  2.07681e-02  0.00000e+00 
  2.72000e-01  4.99943e+00  0.00000e+00 -6.95304e-02  0.00000e+00  2.04384e-02  0.00000e+00 
  2.73000e-01  4.99945e+00  0.00000e+00 -6.83682e-02  0.00000e+00  2.00999e-02  0.00000e+00 
  2.74000e-01  4.99947e+00  0.00000e+00 -6.71779e-02  0.00000e+00  1.97529e-02  0.00000e+00 
  2.75000e-01  4.99948e+00  0.00000e+00 -6.59603e-02  0.00000e+00  1.93975e-02  0.00000e+00 
  2.76000e-01  4.99950e+00  0.00000e+00 -6.47160e-02  0.00000e+00  1.90339e-02  0.00000e+00 
  2.77000e-01  4.99952e+00  0.00000e+00 -6.34459e-02  0.00000e+00  1.86625e-02  0.00000e+00 
  2.78000e-01  4.99954e+00  0.00000e+00 -6.21506e-02  0.00000e+00  1.82835e-02  0.00000e+00 
  2.79000e-01  4.99956e+00  0.00000e+00 -6.08308e-02  0.00000e+00  1.78970e-02  0.00000e+00 
  2.80000e-01  4.99958e+00  0.00000e+00 -5.94874e-02  0.00000e+00  1.75034e-02  0.00000e+00 
  2.81000e-01  4.99960e+00  0.00000e+00 -5.81210e-02  0.00000e+00  1.71029e-02  0.00000e+00 
  2.82000e-01  4.99962e+00  0.00000e+00 -5.67324e-02  0.00000e+00  1.66957e-02  0.00000e+00 
  2.83000e-01  4.99964e+00  0.00000e+00 -5.53223e-02  0.00000e+00  1.62820e-02  0.00000e+00 
  2.84000e-01  4.99966e+00  0.00000e+00 -5.38914e-02  0.00000e+00  1.58622e-02  0.00000e+00 
  2.85000e-01  4.99967e+00  0.00000e+00 -5.24403e-02  0.00000e+00  1.54364e-02  0.00000e+00 
  2.86000e-01  4.99969e+00  0.00000e+00 -5.09696e-02  0.00000e+00  1.50047e-02  0.00000e+00 
  2.87000e-01  4.99971e+00  0.00000e+00 -4.94799e-02  0.00000e+00  1.45673e-02  0.00000e+00 
  2.88000e-01  4.99973e+00  0.00000e+00 -4.79718e-02  0.00000e+00  1.41244e-02  0.00000e+00 
  2.89000e-01  4.99974e+00  0.00000e+00 -4.64458e-02  0.00000e+00  1.36760e-02  0.00000e+00 
  2.90000e-01  4.99976e+00  0.00000e+00 -4.49024e-02  0.00000e+00  1.32222e-02  0.00000e+00 
  2.91000e-01  4.99978e+00  0.00000e+00 -4.33421e-02  0.00000e+00  1.27632e-02  0.00000e+00 
  2.92000e-01  4.99979e+00  0.00000e+00 -4.17656e-02  0.00000e+00  1.22991e-02  0.00000e+00 
  2.93000e-01  4.99981e+00  0.00000e+00 -4.01732e-02  0.00000e+00  1.18300e-02  0.00000e+00 
  2.94000e-01  4.99982e+00  0.00000e+00 -3.85654e-02  0.00000e+00  1.13561e-02  0.00000e+00 
  2.95000e-01  4.99984e+00  0.00000e+00 -3.69427e-02  0.00000e+00  1.08774e-02  0.00000e+00 
  2.96000e-01  4.99985e+00  0.00000e+00 -3.53056e-02  0.00000e+00  1.03940e-02  0.00000e+00 
  2.97000e-01  4.99987e+00  0.00000e+00 -3.36545e-02  0.00000e+00  9.90603e-03  0.00000e+00 
  2.98000e-01  4.99988e+00  0.00000e+00 -3.19900e-02  0.00000e+00  9.41371e-03  0.00000e+00 
  2.99000e-01  4.99989e+00  0.00000e+00 -3.03124e-02  0.00000e+00  8.91719e-03  0.00000e+00 
  3.00000e-01  4.99990e+00  0.00000e+00 -2.86225e-02  0.00000e+00  8.41664e-03  0.00000e+00 
  3.01000e-01  4.99991e+00  0.00000e+00 -2.69205e-02  0.00000e+00  7.91227e-03  0.00000e+00 
  3.02000e-01  4.99993e+00  0.00000e+00 -2.52071e-02  0.00000e+00  7.40426e-03  0.00000e+00 
  3.03000e-01  4.99994e+00  0.00000e+00 -2.34827e-02  0.00000e+00  6.89281e-03  0.00000e+00 
  3.04000e-01  4.99994e+00  0.00000e+00 -2.17477e-02  0.00000e+00  6.37807e-03  0.00000e+00 
  3.05000e-01  4.99995e+00  0.00000e+00 -2.00025e-02  0.00000e+00  5.86020e-03  0.00000e+00 
  3.06000e-01  4.99996e+00  0.00000e+00 -1.82477e-02  0.00000e+00  5.33936e-03  0.00000e+00 
  3.07000e-01  4.99997e+00  0.00000e+00 -1.64835e-02  0.00000e+00  4.81570e-03  0.00000e+00 
  3.08000e-01  4.99998e+00  0.00000e+00 -1.47104e-02  0.00000e+00  4.28935e-03  0.00000e+00 
  3.09000e-01  4.99998e+00  0.00000e+00 -1.29287e-02  0.00000e+00  3.76044e-03  0.00000e+00 
  3.10000e-01  4.99999e+00  0.00000e+00 -1.11387e-02  0.00000e+00  3.22907e-03  0.00000e+00 
  3.11000e-01  4.99999e+00  0.00000e+00 -9.34075e-03  0.00000e+00  2.69533e-03  0.00000e+00 
  3.12000e-01  4.99999e+00  0.00000e+00 -7.53506e-03  0.00000e+00  2.15927e-03  0.00000e+00 
  3.13000e-01  5.00000e+00  0.00000e+00 -5.72190e-03  0.00000e+00  1.62092e-03  0.00000e+00 
  3.14000e-01  5.00000e+00  0.00000e+00 -3.90147e-03  0.00000e+00  1.08031e-03  0.00000e+00 
  3.15000e-01  5.00000e+00  0.00000e+00 -2.07400e-03  0.00000e+00  5.37468e-04  0.00000e+00 
  3.16000e-01  5.00000e+00  0.00000e+00 -2.39694e-04  0.00000e+00 -7.57856e-06  0.00000e+00 
  3.17000e-01  5.00000e+00  0.00000e+00  1.60122e-03  0.00000e+00 -5.54776e-04  0.00000e+00 
  3.18000e-01  5.00000e+00  0.00000e+00  3.44850e-03  0.00000e+00 -1.10406e-03  0.00000e+00 
  3.19000e-01  5.00000e+00  0.00000e+00  5.30193e-03  0.00000e+00 -1.65536e-03  0.00000e+00 
  3.20000e-01  4.99999e+00  0.00000e+00  7.16126e-03  0.00000e+00 -2.20861e-03  0.00000e+00 