TITLE="Wing-tip dynamic response"
VARIABLES="T" "PX" "PY" "PZ" "RX" "RY" "RZ"
ZONE I=2001 T="dyn"
  0.00000e+00  0.00000e+00  0.00000e+00  0.00000e+00  0.00000e+00  0.00000e+00  0.00000e+00 
  1.00000e-03  5.00000e+00  0.00000e+00  1.12098e-08  0.00000e+00 -1.91159e-08  0.00000e+00 
  2.00000e-03  5.00000e+00  0.00000e+00  7.78193e-08  0.00000e+00 -1.15763e-07  0.00000e+00 
  3.00000e-03  5.00000e+00  0.00000e+00  2.81778e-07  0.00000e+00 -3.68381e-07  0.00000e+00 
  4.00000e-03  5.00000e+00  0.00000e+00  7.31828e-07  0.00000e+00 -8.55252e-07  0.00000e+00 
  5.00000e-03  5.00000e+00  0.00000e+00  1.55682e-06  0.00000e+00 -1.65451e-06  0.00000e+00 
  6.00000e-03  5.00000e+00  0.00000e+00  2.90283e-06  0.00000e+00 -2.84397e-06  0.00000e+00 
  7.00000e-03  5.00000e+00  0.00000e+00  4.93099e-06  0.00000e+00 -4.50095e-06  0.00000e+00 
  8.00000e-03  5.00000e+00  0.00000e+00  7.81565e-06  0.00000e+00 -6.70146e-06  0.00000e+00 
  9.00000e-03  5.00000e+00  0.00000e+00  1.17434e-05  0.00000e+00 -9.51962e-06  0.00000e+00 
  1.00000e-02  5.00000e+00  0.00000e+00  1.69139e-05  0.00000e+00 -1.30303e-05  0.00000e+00 
  1.10000e-02  5.00000e+00  0.00000e+00  2.35432e-05  0.00000e+00 -1.73183e-05  0.00000e+00 
  1.20000e-02  5.00000e+00  0.00000e+00  3.18640e-05  0.00000e+00 -2.24861e-05  0.00000e+00 
  1.30000e-02  5.00000e+00  0.00000e+00  4.21151e-05  0.00000e+00 -2.86405e-05  0.00000e+00 
  1.40000e-02  5.00000e+00  0.00000e+00  5.45200e-05  0.00000e+00 -3.58547e-05  0.00000e+00 
  1.50000e-02  5.00000e+00  0.00000e+00  6.92758e-05  0.00000e+00 -4.41452e-05  0.00000e+00 
  1.60000e-02  5.00000e+00  0.00000e+00  8.65653e-05  0.00000e+00 -5.34974e-05  0.00000e+00 
  1.70000e-02  5.00000e+00  0.00000e+00  1.06576e-04  0.00000e+00 -6.39031e-05  0.00000e+00 
  1.80000e-02  5.00000e+00  0.00000e+00  1.29509e-04  0.00000e+00 -7.53622e-05  0.00000e+00 
  1.90000e-02  5.00000e+00  0.00000e+00  1.55576e-04  0.00000e+00 -8.78757e-05  0.00000e+00 
  2.00000e-02  5.00000e+00  0.00000e+00  1.85012e-04  0.00000e+00 -1.01462e-04  0.00000e+00 
  2.10000e-02  5.00000e+00  0.00000e+00  2.18077e-04  0.00000e+00 -1.16165e-04  0.00000e+00 
  2.20000e-02  5.00000e+00  0.00000e+00  2.55054e-04  0.00000e+00 -1.32045e-04  0.00000e+00 
  2.30000e-02  5.00000e+00  0.00000e+00  2.96248e-04  0.00000e+00 -1.49176e-04  0.00000e+00 
  2.40000e-02  5.00000e+00  0.00000e+00  3.41970e-04  0.00000e+00 -1.67629e-04  0.00000e+00 
  2.50000e-02  5.00000e+00  0.00000e+00  3.92539e-04  0.00000e+00 -1.87462e-04  0.00000e+00 
  2.60000e-02  5.00000e+00  0.00000e+00  4.48289e-04  0.00000e+00 -2.08729e-04  0.00000e+00 
  2.70000e-02  5.00000e+00  0.00000e+00  5.09585e-04  0.00000e+00 -2.31529e-04  0.00000e+00 
  2.80000e-02  5.00000e+00  0.00000e+00  5.76832e-04  0.00000e+00 -2.56006e-04  0.00000e+00 
  2.90000e-02  5.00000e+00  0.00000e+00  6.50461e-04  0.00000e+00 -2.82333e-04  0.00000e+00 
  3.00000e-02  5.00000e+00  0.00000e+00  7.30910e-04  0.00000e+00 -3.10683e-04  0.00000e+00 
  3.10000e-02  5.00000e+00  0.00000e+00  8.18621e-04  0.00000e+00 -3.41232e-04  0.00000e+00 
  3.20000e-02  5.00000e+00  0.00000e+00  9.14031e-04  0.00000e+00 -3.74153e-04  0.00000e+00 
  3.30000e-02  5.00000e+00  0.00000e+00  1.01756e-03  0.00000e+00 -4.09601e-04  0.00000e+00 
  3.40000e-02  5.00000e+00  0.00000e+00  1.12960e-03  0.00000e+00 -4.47696e-04  0.00000e+00 
  3.50000e-02  5.00000e+00  0.00000e+00  1.25052e-03  0.00000e+00 -4.88531e-04  0.00000e+00 
  3.60000e-02  5.00000e+00  0.00000e+00  1.38066e-03  0.00000e+00 -5.32182e-04  0.00000e+00 
  3.70000e-02  5.00000e+00  0.00000e+00  1.52037e-03  0.00000e+00 -5.78729e-04  0.00000e+00 
  3.80000e-02  5.00000e+00  0.00000e+00  1.66997e-03  0.00000e+00 -6.28263e-04  0.00000e+00 
  3.90000e-02  5.00000e+00  0.00000e+00  1.82978e-03  0.00000e+00 -6.80878e-04  0.00000e+00 
  4.00000e-02  5.00000e+00  0.00000e+00  2.00008e-03  0.00000e+00 -7.36633e-04  0.00000e+00 
  4.10000e-02  5.00000e+00  0.00000e+00  2.18112e-03  0.00000e+00 -7.95544e-04  0.00000e+00 
  4.20000e-02  5.00000e+00  0.00000e+00  2.37312e-03  0.00000e+00 -8.57611e-04  0.00000e+00 
  4.30000e-02  5.00000e+00  0.00000e+00  2.57627e-03  0.00000e+00 -9.22824e-04  0.00000e+00 
  4.40000e-02  5.00000e+00  0.00000e+00  2.79077e-03  0.00000e+00 -9.91166e-04  0.00000e+00 
  4.50000e-02  5.00000e+00  0.00000e+00  3.01679e-03  0.00000e+00 -1.06262e-03  0.00000e+00 
  4.60000e-02  5.00000e+00  0.00000e+00  3.25451e-03  0.00000e+00 -1.13717e-03  0.00000e+00 
  4.70000e-02  5.00000e+00  0.00000e+00  3.50413e-03  0.00000e+00 -1.21487e-03  0.00000e+00 
  4.80000e-02  5.00000e+00  0.00000e+00  3.76584e-03  0.00000e+00 -1.29577e-03  0.00000e+00 
  4.90000e-02  5.00000e+00  0.00000e+00  4.03986e-03  0.00000e+00 -1.37996e-03  0.00000e+00 
  5.00000e-02  5.00000e+00  0.00000e+00  4.32637e-03  0.00000e+00 -1.46749e-03  0.00000e+00 
  5.10000e-02  5.00000e+00  0.00000e+00  4.62554e-03  0.00000e+00 -1.55842e-03  0.00000e+00 
  5.20000e-02  5.00000e+00  0.00000e+00  4.93752e-03  0.00000e+00 -1.65278e-03  0.00000e+00 
  5.30000e-02  5.00000e+00  0.00000e+00  5.26245e-03  0.00000e+00 -1.75062e-03  0.00000e+00 
  5.40000e-02  5.00000e+00  0.00000e+00  5.60048e-03  0.00000e+00 -1.85202e-03  0.00000e+00 
  5.50000e-02  5.00000e+00  0.00000e+00  5.95171e-03  0.00000e+00 -1.95705e-03  0.00000e+00 
  5.60000e-02  5.00000e+00  0.00000e+00  6.31626e-03  0.00000e+00 -2.06578e-03  0.00000e+00 
  5.70000e-02  4.99999e+00  0.00000e+00  6.69420e-03  0.00000e+00 -2.17827e-03  0.00000e+00 
  5.80000e-02  4.99999e+00  0.00000e+00  7.08557e-03  0.00000e+00 -2.29459e-03  0.00000e+00 
  5.90000e-02  4.99999e+00  0.00000e+00  7.49037e-03  0.00000e+00 -2.41476e-03  0.00000e+00 
  6.00000e-02  4.99999e+00  0.00000e+00  7.90852e-03  0.00000e+00 -2.53876e-03  0.00000e+00 
  6.10000e-02  4.99999e+00  0.00000e+00  8.33992e-03  0.00000e+00 -2.66652e-03  0.00000e+00 
  6.20000e-02  4.99999e+00  0.00000e+00  8.78437e-03  0.00000e+00 -2.79794e-03  0.00000e+00 
  6.30000e-02  4.99999e+00  0.00000e+00  9.24168e-03  0.00000e+00 -2.93292e-03  0.00000e+00 
  6.40000e-02  4.99999e+00  0.00000e+00  9.71161e-03  0.00000e+00 -3.07136e-03  0.00000e+00 
  6.50000e-02  4.99999e+00  0.00000e+00  1.01939e-02  0.00000e+00 -3.21316e-03  0.00000e+00 
  6.60000e-02  4.99999e+00  0.00000e+00  1.06883e-02  0.00000e+00 -3.35819e-03  0.00000e+00 
  6.70000e-02  4.99998e+00  0.00000e+00  1.11943e-02  0.00000e+00 -3.50633e-03  0.00000e+00 
  6.80000e-02  4.99998e+00  0.00000e+00  1.17118e-02  0.00000e+00 -3.65743e-03  0.00000e+00 
  6.90000e-02  4.99998e+00  0.00000e+00  1.22402e-02  0.00000e+00 -3.81133e-03  0.00000e+00 
  7.00000e-02  4.99998e+00  0.00000e+00  1.27792e-02  0.00000e+00 -3.96786e-03  0.00000e+00 
  7.10000e-02  4.99998e+00  0.00000e+00  1.33282e-02  0.00000e+00 -4.12684e-03  0.00000e+00 
  7.20000e-02  4.99998e+00  0.00000e+00  1.38870e-02  0.00000e+00 -4.28812e-03  0.00000e+00 
  7.30000e-02  4.99997e+00  0.00000e+00  1.44549e-02  0.00000e+00 -4.45157e-03  0.00000e+00 
  7.40000e-02  4.99997e+00  0.00000e+00  1.50316e-02  0.00000e+00 -4.61709e-03  0.00000e+00 
  7.50000e-02  4.99997e+00  0.00000e+00  1.56167e-02  0.00000e+00 -4.78461e-03  0.00000e+00 
  7.60000e-02  4.99997e+00  0.00000e+00  1.62095e-02  0.00000e+00 -4.95404e-03  0.00000e+00 
  7.70000e-02  4.99997e+00  0.00000e+00  1.68098e-02  0.00000e+00 -5.12527e-03  0.00000e+00 
  7.80000e-02  4.99996e+00  0.00000e+00  1.74168e-02  0.00000e+00 -5.29819e-03  0.00000e+00 
  7.90000e-02  4.99996e+00  0.00000e+00  1.80301e-02  0.00000e+00 -5.47265e-03  0.00000e+00 
  8.00000e-02  4.99996e+00  0.00000e+00  1.86491e-02  0.00000e+00 -5.64853e-03  0.00000e+00 
  8.10000e-02  4.99996e+00  0.00000e+00  1.92731e-02  0.00000e+00 -5.82565e-03  0.00000e+00 
  8.20000e-02  4.99995e+00  0.00000e+00  1.99014e-02  0.00000e+00 -6.00387e-03  0.00000e+00 
  8.30000e-02  4.99995e+00  0.00000e+00  2.05335e-02  0.00000e+00 -6.18301e-03  0.00000e+00 
  8.40000e-02  4.99995e+00  0.00000e+00  2.11685e-02  0.00000e+00 -6.36291e-03  0.00000e+00 
  8.50000e-02  4.99994e+00  0.00000e+00  2.18058e-02  0.00000e+00 -6.54337e-03  0.00000e+00 
  8.60000e-02  4.99994e+00  0.00000e+00  2.24445e-02  0.00000e+00 -6.72415e-03  0.00000e+00 
  8.70000e-02  4.99994e+00  0.00000e+00  2.30837e-02  0.00000e+00 -6.90496e-03  0.00000e+00 
  8.80000e-02  4.99993e+00  0.00000e+00  2.37226e-02  0.00000e+00 -7.08548e-03  0.00000e+00 
  8.90000e-02  4.99993e+00  0.00000e+00  2.43601e-02  0.00000e+00 -7.26539e-03  0.00000e+00 
  9.00000e-02  4.99993e+00  0.00000e+00  2.49955e-02  0.00000e+00 -7.44439e-03  0.00000e+00 
  9.10000e-02  4.99992e+00  0.00000e+00  2.56277e-02  0.00000e+00 -7.62216e-03  0.00000e+00 
  9.20000e-02  4.99992e+00  0.00000e+00  2.62558e-02  0.00000e+00 -7.79839e-03  0.00000e+00 
  9.30000e-02  4.99991e+00  0.00000e+00  2.68787e-02  0.00000e+00 -7.97281e-03  0.00000e+00 
  9.40000e-02  4.99991e+00  0.00000e+00  2.74957e-02  0.00000e+00 -8.14514e-03  0.00000e+00 
  9.50000e-02  4.99991e+00  0.00000e+00  2.81056e-02  0.00000e+00 -8.31509e-03  0.00000e+00 
  9.60000e-02  4.99990e+00  0.00000e+00  2.87076e-02  0.00000e+00 -8.48238e-03  0.00000e+00 
  9.70000e-02  4.99990e+00  0.00000e+00  2.93006e-02  0.00000e+00 -8.64671e-03  0.00000e+00 
  9.80000e-02  4.99989e+00  0.00000e+00  2.98837e-02  0.00000e+00 -8.80781e-03  0.00000e+00 
  9.90000e-02  4.99989e+00  0.00000e+00  3.04560e-02  0.00000e+00 -8.96543e-03  0.00000e+00 
  1.00000e-01  4.99989e+00  0.00000e+00  3.10165e-02  0.00000e+00 -9.11938e-03  0.00000e+00 
  1.01000e-01  4.99988e+00  0.00000e+00  3.15643e-02  0.00000e+00 -9.26944e-03  0.00000e+00 
  1.02000e-01  4.99988e+00  0.00000e+00  3.20985e-02  0.00000e+00 -9.41543e-03  0.00000e+00 
  1.03000e-01  4.99987e+00  0.00000e+00  3.26182e-02  0.00000e+00 -9.55715e-03  0.00000e+00 
  1.04000e-01  4.99987e+00  0.00000e+00  3.31225e-02  0.00000e+00 -9.69438e-03  0.00000e+00 
  1.05000e-01  4.99987e+00  0.00000e+00  3.36104e-02  0.00000e+00 -9.82689e-03  0.00000e+00 
  1.06000e-01  4.99986e+00  0.00000e+00  3.40810e-02  0.00000e+00 -9.95442e-03  0.00000e+00 
  1.07000e-01  4.99986e+00  0.00000e+00  3.45333e-02  0.00000e+00 -1.00767e-02  0.00000e+00 
  1.08000e-01  4.99986e+00  0.00000e+00  3.49662e-02  0.00000e+00 -1.01934e-02  0.00000e+00 
  1.09000e-01  4.99985e+00  0.00000e+00  3.53789e-02  0.00000e+00 -1.03043e-02  0.00000e+00 
  1.10000e-01  4.99985e+00  0.00000e+00  3.57704e-02  0.00000e+00 -1.04092e-02  0.00000e+00 
  1.11000e-01  4.99985e+00  0.00000e+00  3.61397e-02  0.00000e+00 -1.05077e-02  0.00000e+00 
  1.12000e-01  4.99984e+00  0.00000e+00  3.64857e-02  0.00000e+00 -1.05995e-02  0.00000e+00 
  1.13000e-01  4.99984e+00  0.00000e+00  3.68076e-02  0.00000e+00 -1.06843e-02  0.00000e+00 
  1.14000e-01  4.99984e+00  0.00000e+00  3.71043e-02  0.00000e+00 -1.07619e-02  0.00000e+00 
  1.15000e-01  4.99984e+00  0.00000e+00  3.73749e-02  0.00000e+00 -1.08318e-02  0.00000e+00 
  1.16000e-01  4.99983e+00  0.00000e+00  3.76184e-02  0.00000e+00 -1.08938e-02  0.00000e+00 
  1.17000e-01  4.99983e+00  0.00000e+00  3.78340e-02  0.00000e+00 -1.09475e-02  0.00000e+00 
  1.18000e-01  4.99983e+00  0.00000e+00  3.80207e-02  0.00000e+00 -1.09927e-02  0.00000e+00 
  1.19000e-01  4.99983e+00  0.00000e+00  3.81777e-02  0.00000e+00 -1.10292e-02  0.00000e+00 
  1.20000e-01  4.99983e+00  0.00000e+00  3.83043e-02  0.00000e+00 -1.10568e-02  0.00000e+00 
  1.21000e-01  4.99983e+00  0.00000e+00  3.83997e-02  0.00000e+00 -1.10752e-02  0.00000e+00 
  1.22000e-01  4.99983e+00  0.00000e+00  3.84632e-02  0.00000e+00 -1.10844e-02  0.00000e+00 
  1.23000e-01  4.99983e+00  0.00000e+00  3.84942e-02  0.00000e+00 -1.10842e-02  0.00000e+00 
  1.24000e-01  4.99983e+00  0.00000e+00  3.84920e-02  0.00000e+00 -1.10743e-02  0.00000e+00 
  1.25000e-01  4.99983e+00  0.00000e+00  3.84561e-02  0.00000e+00 -1.10547e-02  0.00000e+00 
  1.26000e-01  4.99983e+00  0.00000e+00  3.83858e-02  0.00000e+00 -1.10253e-02  0.00000e+00 
  1.27000e-01  4.99983e+00  0.00000e+00  3.82807e-02  0.00000e+00 -1.09859e-02  0.00000e+00 
  1.28000e-01  4.99983e+00  0.00000e+00  3.81403e-02  0.00000e+00 -1.09365e-02  0.00000e+00 
  1.29000e-01  4.99983e+00  0.00000e+00  3.79642e-02  0.00000e+00 -1.08770e-02  0.00000e+00 
  1.30000e-01  4.99983e+00  0.00000e+00  3.77518e-02  0.00000e+00 -1.08074e-02  0.00000e+00 
  1.31000e-01  4.99983e+00  0.00000e+00  3.75029e-02  0.00000e+00 -1.07276e-02  0.00000e+00 
  1.32000e-01  4.99984e+00  0.00000e+00  3.72170e-02  0.00000e+00 -1.06373e-02  0.00000e+00 
  1.33000e-01  4.99984e+00  0.00000e+00  3.68937e-02  0.00000e+00 -1.05366e-02  0.00000e+00 
  1.34000e-01  4.99984e+00  0.00000e+00  3.65326e-02  0.00000e+00 -1.04252e-02  0.00000e+00 
  1.35000e-01  4.99985e+00  0.00000e+00  3.61335e-02  0.00000e+00 -1.03030e-02  0.00000e+00 
  1.36000e-01  4.99985e+00  0.00000e+00  3.56960e-02  0.00000e+00 -1.01699e-02  0.00000e+00 
  1.37000e-01  4.99985e+00  0.00000e+00  3.52198e-02  0.00000e+00 -1.00259e-02  0.00000e+00 
  1.38000e-01  4.99986e+00  0.00000e+00  3.47048e-02  0.00000e+00 -9.87079e-03  0.00000e+00 
  1.39000e-01  4.99986e+00  0.00000e+00  3.41508e-02  0.00000e+00 -9.70458e-03  0.00000e+00 
  1.40000e-01  4.99987e+00  0.00000e+00  3.35577e-02  0.00000e+00 -9.52716e-03  0.00000e+00 
  1.41000e-01  4.99987e+00  0.00000e+00  3.29253e-02  0.00000e+00 -9.33849e-03  0.00000e+00 
  1.42000e-01  4.99988e+00  0.00000e+00  3.22537e-02  0.00000e+00 -9.13850e-03  0.00000e+00 
  1.43000e-01  4.99988e+00  0.00000e+00  3.15429e-02  0.00000e+00 -8.92720e-03  0.00000e+00 
  1.44000e-01  4.99989e+00  0.00000e+00  3.07930e-02  0.00000e+00 -8.70459e-03  0.00000e+00 
  1.45000e-01  4.99989e+00  0.00000e+00  3.00042e-02  0.00000e+00 -8.47077e-03  0.00000e+00 
  1.46000e-01  4.99990e+00  0.00000e+00  2.91767e-02  0.00000e+00 -8.22585e-03  0.00000e+00 
  1.47000e-01  4.99991e+00  0.00000e+00  2.83108e-02  0.00000e+00 -7.96998e-03  0.00000e+00 
  1.48000e-01  4.99991e+00  0.00000e+00  2.74069e-02  0.00000e+00 -7.70329e-03  0.00000e+00 
  1.49000e-01  4.99992e+00  0.00000e+00  2.64654e-02  0.00000e+00 -7.42594e-03  0.00000e+00 
  1.50000e-01  4.99992e+00  0.00000e+00  2.54867e-02  0.00000e+00 -7.13808e-03  0.00000e+00 
  1.51000e-01  4.99993e+00  0.00000e+00  2.44712e-02  0.00000e+00 -6.83989e-03  0.00000e+00 
  1.52000e-01  4.99994e+00  0.00000e+00  2.34196e-02  0.00000e+00 -6.53154e-03  0.00000e+00 
  1.53000e-01  4.99994e+00  0.00000e+00  2.23323e-02  0.00000e+00 -6.21320e-03  0.00000e+00 
  1.54000e-01  4.99995e+00  0.00000e+00  2.12100e-02  0.00000e+00 -5.88509e-03  0.00000e+00 
  1.55000e-01  4.99995e+00  0.00000e+00  2.00532e-02  0.00000e+00 -5.54740e-03  0.00000e+00 
  1.56000e-01  4.99996e+00  0.00000e+00  1.88627e-02  0.00000e+00 -5.20034e-03  0.00000e+00 
  1.57000e-01  4.99996e+00  0.00000e+00  1.76390e-02  0.00000e+00 -4.84411e-03  0.00000e+00 
  1.58000e-01  4.99997e+00  0.00000e+00  1.63830e-02  0.00000e+00 -4.47886e-03  0.00000e+00 
  1.59000e-01  4.99997e+00  0.00000e+00  1.50952e-02  0.00000e+00 -4.10475e-03  0.00000e+00 
  1.60000e-01  4.99998e+00  0.00000e+00  1.37764e-02  0.00000e+00 -3.72192e-03  0.00000e+00 
  1.61000e-01  4.99998e+00  0.00000e+00  1.24274e-02  0.00000e+00 -3.33055e-03  0.00000e+00 
  1.62000e-01  4.99999e+00  0.00000e+00  1.10490e-02  0.00000e+00 -2.93082e-03  0.00000e+00 
  1.63000e-01  4.99999e+00  0.00000e+00  9.64200e-03  0.00000e+00 -2.52294e-03  0.00000e+00 
  1.64000e-01  4.99999e+00  0.00000e+00  8.20739e-03  0.00000e+00 -2.10716e-03  0.00000e+00 
  1.65000e-01  5.00000e+00  0.00000e+00  6.74610e-03  0.00000e+00 -1.68372e-03  0.00000e+00 
  1.66000e-01  5.00000e+00  0.00000e+00  5.25914e-03  0.00000e+00 -1.25291e-03  0.00000e+00 
  1.67000e-01  5.00000e+00  0.00000e+00  3.74753e-03  0.00000e+00 -8.15000e-04  0.00000e+00 
  1.68000e-01  5.00000e+00  0.00000e+00  2.21236e-03  0.00000e+00 -3.70293e-04  0.00000e+00 
  1.69000e-01  5.00000e+00  0.00000e+00  6.54748e-04  0.00000e+00  8.09054e-05  0.00000e+00 
  1.70000e-01  5.00000e+00  0.00000e+00 -9.24133e-04  0.00000e+00  5.38247e-04  0.00000e+00 
  1.71000e-01  5.00000e+00  0.00000e+00 -2.52306e-03  0.00000e+00  1.00135e-03  0.00000e+00 
  1.72000e-01  5.00000e+00  0.00000e+00 -4.14075e-03  0.00000e+00  1.46979e-03  0.00000e+00 
  1.73000e-01  5.00000e+00  0.00000e+00 -5.77591e-03  0.00000e+00  1.94316e-03  0.00000e+00 
  1.74000e-01  4.99999e+00  0.00000e+00 -7.42722e-03  0.00000e+00  2.42101e-03  0.00000e+00 
  1.75000e-01  4.99999e+00  0.00000e+00 -9.09334e-03  0.00000e+00  2.90292e-03  0.00000e+00 
  1.76000e-01  4.99999e+00  0.00000e+00 -1.07729e-02  0.00000e+00  3.38849e-03  0.00000e+00 
  1.77000e-01  4.99998e+00  0.00000e+00 -1.24647e-02  0.00000e+00  3.87730e-03  0.00000e+00 
  1.78000e-01  4.99998e+00  0.00000e+00 -1.41672e-02  0.00000e+00  4.36900e-03  0.00000e+00 
  1.79000e-01  4.99997e+00  0.00000e+00 -1.58791e-02  0.00000e+00  4.86320e-03  0.00000e+00 
  1.80000e-01  4.99996e+00  0.00000e+00 -1.75992e-02  0.00000e+00  5.35952e-03  0.00000e+00 
  1.81000e-01  4.99996e+00  0.00000e+00 -1.93260e-02  0.00000e+00  5.85759e-03  0.00000e+00 
  1.82000e-01  4.99995e+00  0.00000e+00 -2.10581e-02  0.00000e+00  6.35701e-03  0.00000e+00 
  1.83000e-01  4.99994e+00  0.00000e+00 -2.27944e-02  0.00000e+00  6.85744e-03  0.00000e+00 
  1.84000e-01  4.99993e+00  0.00000e+00 -2.45333e-02  0.00000e+00  7.35853e-03  0.00000e+00 
  1.85000e-01  4.99992e+00  0.00000e+00 -2.62736e-02  0.00000e+00  7.85996e-03  0.00000e+00 
  1.86000e-01  4.99991e+00  0.00000e+00 -2.80139e-02  0.00000e+00  8.36141e-03  0.00000e+00 
  1.87000e-01  4.99990e+00  0.00000e+00 -2.97529e-02  0.00000e+00  8.86255e-03  0.00000e+00 
  1.88000e-01  4.99988e+00  0.00000e+00 -3.14892e-02  0.00000e+00  9.36304e-03  0.00000e+00 
  1.89000e-01  4.99987e+00  0.00000e+00 -3.32216e-02  0.00000e+00  9.86253e-03  0.00000e+00 
  1.90000e-01  4.99986e+00  0.00000e+00 -3.49485e-02  0.00000e+00  1.03606e-02  0.00000e+00 
  1.91000e-01  4.99984e+00  0.00000e+00 -3.66686e-02  0.00000e+00  1.08569e-02  0.00000e+00 
  1.92000e-01  4.99983e+00  0.00000e+00 -3.83805e-02  0.00000e+00  1.13509e-02  0.00000e+00 
  1.93000e-01  4.99981e+00  0.00000e+00 -4.00827e-02  0.00000e+00  1.18423e-02  0.00000e+00 
  1.94000e-01  4.99979e+00  0.00000e+00 -4.17738e-02  0.00000e+00  1.23307e-02  0.00000e+00 
  1.95000e-01  4.99978e+00  0.00000e+00 -4.34524e-02  0.00000e+00  1.28155e-02  0.00000e+00 
  1.96000e-01  4.99976e+00  0.00000e+00 -4.51172e-02  0.00000e+00  1.32964e-02  0.00000e+00 
  1.97000e-01  4.99974e+00  0.00000e+00 -4.67666e-02  0.00000e+00  1.37729e-02  0.00000e+00 
  1.98000e-01  4.99972e+00  0.00000e+00 -4.83994e-02  0.00000e+00  1.42447e-02  0.00000e+00 
  1.99000e-01  4.99970e+00  0.00000e+00 -5.00140e-02  0.00000e+00  1.47112e-02  0.00000e+00 
  2.00000e-01  4.99968e+00  0.00000e+00 -5.16092e-02  0.00000e+00  1.51720e-02  0.00000e+00 
  2.01000e-01  4.99967e+00  0.00000e+00 -5.31837e-02  0.00000e+00  1.56268e-02  0.00000e+00 
  2.02000e-01  4.99965e+00  0.00000e+00 -5.47360e-02  0.00000e+00  1.60750e-02  0.00000e+00 
  2.03000e-01  4.99963e+00  0.00000e+00 -5.62652e-02  0.00000e+00  1.65165e-02  0.00000e+00 
  2.04000e-01  4.99961e+00  0.00000e+00 -5.77698e-02  0.00000e+00  1.69507e-02  0.00000e+00 
  2.05000e-01  4.99958e+00  0.00000e+00 -5.92488e-02  0.00000e+00  1.73776e-02  0.00000e+00 
  2.06000e-01  4.99956e+00  0.00000e+00 -6.07011e-02  0.00000e+00  1.77967e-02  0.00000e+00 
  2.07000e-01  4.99954e+00  0.00000e+00 -6.21256e-02  0.00000e+00  1.82079e-02  0.00000e+00 
  2.08000e-01  4.99952e+00  0.00000e+00 -6.35212e-02  0.00000e+00  1.86107e-02  0.00000e+00 
  2.09000e-01  4.99950e+00  0.00000e+00 -6.48869e-02  0.00000e+00  1.90051e-02  0.00000e+00 
  2.10000e-01  4.99948e+00  0.00000e+00 -6.62218e-02  0.00000e+00  1.93906e-02  0.00000e+00 
  2.11000e-01  4.99946e+00  0.00000e+00 -6.75248e-02  0.00000e+00  1.97672e-02  0.00000e+00 
  2.12000e-01  4.99944e+00  0.00000e+00 -6.87950e-02  0.00000e+00  2.01345e-02  0.00000e+00 
  2.13000e-01  4.99942e+00  0.00000e+00 -7.00317e-02  0.00000e+00  2.04923e-02  0.00000e+00 
  2.14000e-01  4.99940e+00  0.00000e+00 -7.12337e-02  0.00000e+00  2.08404e-02  0.00000e+00 
  2.15000e-01  4.99938e+00  0.00000e+00 -7.24004e-02  0.00000e+00  2.11786e-02  0.00000e+00 
  2.16000e-01  4.99936e+00  0.00000e+00 -7.35308e-02  0.00000e+00  2.15066e-02  0.00000e+00 
  2.17000e-01  4.99934e+00  0.00000e+00 -7.46242e-02  0.00000e+00  2.18241e-02  0.00000e+00 
  2.18000e-01  4.99932e+00  0.00000e+00 -7.56795e-02  0.00000e+00  2.21309e-02  0.00000e+00 
  2.19000e-01  4.99930e+00  0.00000e+00 -7.66962e-02  0.00000e+00  2.24266e-02  0.00000e+00 
  2.20000e-01  4.99929e+00  0.00000e+00 -7.76734e-02  0.00000e+00  2.27111e-02  0.00000e+00 
  2.21000e-01  4.99927e+00  0.00000e+00 -7.86104e-02  0.00000e+00  2.29840e-02  0.00000e+00 
  2.22000e-01  4.99925e+00  0.00000e+00 -7.95065e-02  0.00000e+00  2.32452e-02  0.00000e+00 
  2.23000e-01  4.99924e+00  0.00000e+00 -8.03611e-02  0.00000e+00  2.34944e-02  0.00000e+00 
  2.24000e-01  4.99922e+00  0.00000e+00 -8.11737e-02  0.00000e+00  2.37314e-02  0.00000e+00 
  2.25000e-01  4.99921e+00  0.00000e+00 -8.19437e-02  0.00000e+00  2.39561e-02  0.00000e+00 
  2.26000e-01  4.99919e+00  0.00000e+00 -8.26706e-02  0.00000e+00  2.41683e-02  0.00000e+00 
  2.27000e-01  4.99918e+00  0.00000e+00 -8.33540e-02  0.00000e+00  2.43678e-02  0.00000e+00 
  2.28000e-01  4.99917e+00  0.00000e+00 -8.39934e-02  0.00000e+00  2.45546e-02  0.00000e+00 
  2.29000e-01  4.99915e+00  0.00000e+00 -8.45887e-02  0.00000e+00  2.47285e-02  0.00000e+00 
  2.30000e-01  4.99914e+00  0.00000e+00 -8.51395e-02  0.00000e+00  2.48895e-02  0.00000e+00 
  2.31000e-01  4.99913e+00  0.00000e+00 -8.56457e-02  0.00000e+00  2.50376e-02  0.00000e+00 
  2.32000e-01  4.99912e+00  0.00000e+00 -8.61071e-02  0.00000e+00  2.51729e-02  0.00000e+00 
  2.33000e-01  4.99911e+00  0.00000e+00 -8.65237e-02  0.00000e+00  2.52952e-02  0.00000e+00 
  2.34000e-01  4.99911e+00  0.00000e+00 -8.68952e-02  0.00000e+00  2.54047e-02  0.00000e+00 
  2.35000e-01  4.99910e+00  0.00000e+00 -8.72217e-02  0.00000e+00  2.55013e-02  0.00000e+00 
  2.36000e-01  4.99909e+00  0.00000e+00 -8.75031e-02  0.00000e+00  2.55850e-02  0.00000e+00 
  2.37000e-01  4.99909e+00  0.00000e+00 -8.77394e-02  0.00000e+00  2.56559e-02  0.00000e+00 
  2.38000e-01  4.99908e+00  0.00000e+00 -8.79307e-02  0.00000e+00  2.57139e-02  0.00000e+00 
  2.39000e-01  4.99908e+00  0.00000e+00 -8.80770e-02  0.00000e+00  2.57590e-02  0.00000e+00 
  2.40000e-01  4.99908e+00  0.00000e+00 -8.81783e-02  0.00000e+00  2.57913e-02  0.00000e+00 
  2.41000e-01  4.99908e+00  0.00000e+00 -8.82349e-02  0.00000e+00  2.58108e-02  0.00000e+00 
  2.42000e-01  4.99908e+00  0.00000e+00 -8.82467e-02  0.00000e+00  2.58175e-02  0.00000e+00 
  2.43000e-01  4.99908e+00  0.00000e+00 -8.82139e-02  0.00000e+00  2.58114e-02  0.00000e+00 
  2.44000e-01  4.99908e+00  0.00000e+00 -8.81366e-02  0.00000e+00  2.57923e-02  0.00000e+00 
  2.45000e-01  4.99908e+00  0.00000e+00 -8.80150e-02  0.00000e+00  2.57604e-02  0.00000e+00 
  2.46000e-01  4.99909e+00  0.00000e+00 -8.78494e-02  0.00000e+00  2.57157e-02  0.00000e+00 
  2.47000e-01  4.99909e+00  0.00000e+00 -8.76399e-02  0.00000e+00  2.56580e-02  0.00000e+00 
  2.48000e-01  4.99910e+00  0.00000e+00 -8.73869e-02  0.00000e+00  2.55876e-02  0.00000e+00 
  2.49000e-01  4.99910e+00  0.00000e+00 -8.70907e-02  0.00000e+00  2.55045e-02  0.00000e+00 
  2.50000e-01  4.99911e+00  0.00000e+00 -8.67517e-02  0.00000e+00  2.54087e-02  0.00000e+00 
  2.51000e-01  4.99912e+00  0.00000e+00 -8.63704e-02  0.00000e+00  2.53005e-02  0.00000e+00 
  2.52000e-01  4.99912e+00  0.00000e+00 -8.59472e-02  0.00000e+00  2.51799e-02  0.00000e+00 
  2.53000e-01  4.99913e+00  0.00000e+00 -8.54825e-02  0.00000e+00  2.50472e-02  0.00000e+00 
  2.54000e-01  4.99914e+00  0.00000e+00 -8.49769e-02  0.00000e+00  2.49023e-02  0.00000e+00 
  2.55000e-01  4.99916e+00  0.00000e+00 -8.44310e-02  0.00000e+00  2.47456e-02  0.00000e+00 
  2.56000e-01  4.99917e+00  0.00000e+00 -8.38454e-02  0.00000e+00  2.45772e-02  0.00000e+00 
  2.57000e-01  4.99918e+00  0.00000e+00 -8.32206e-02  0.00000e+00  2.43974e-02  0.00000e+00 
  2.58000e-01  4.99919e+00  0.00000e+00 -8.25574e-02  0.00000e+00  2.42063e-02  0.00000e+00 
  2.59000e-01  4.99921e+00  0.00000e+00 -8.18564e-02  0.00000e+00  2.40043e-02  0.00000e+00 
  2.60000e-01  4.99922e+00  0.00000e+00 -8.11182e-02  0.00000e+00  2.37915e-02  0.00000e+00 
  2.61000e-01  4.99924e+00  0.00000e+00 -8.03434e-02  0.00000e+00  2.35681e-02  0.00000e+00 
  2.62000e-01  4.99925e+00  0.00000e+00 -7.95328e-02  0.00000e+00  2.33342e-02  0.00000e+00 
  2.63000e-01  4.99927e+00  0.00000e+00 -7.86869e-02  0.00000e+00  2.30901e-02  0.00000e+00 
  2.64000e-01  4.99928e+00  0.00000e+00 -7.78064e-02  0.00000e+00  2.28359e-02  0.00000e+00 
  2.65000e-01  4.99930e+00  0.00000e+00 -7.68918e-02  0.00000e+00  2.25717e-02  0.00000e+00 
  2.66000e-01  4.99932e+00  0.00000e+00 -7.59439e-02  0.00000e+00  2.22977e-02  0.00000e+00 
  2.67000e-01  4.99933e+00  0.00000e+00 -7.49632e-02  0.00000e+00  2.20140e-02  0.00000e+00 
  2.68000e-01  4.99935e+00  0.00000e+00 -7.39505e-02  0.00000e+00  2.17209e-02  0.00000e+00 
  2.69000e-01  4.99937e+00  0.00000e+00 -7.29062e-02  0.00000e+00  2.14183e-02  0.00000e+00 
  2.70000e-01  4.99939e+00  0.00000e+00 -7.18311e-02  0.00000e+00  2.11065e-02  0.00000e+00 
  2.71000e-01  4.99941e+00  0.00000e+00 -7.07258e-02  0.00000e+00  2.07855e-02  0.00000e+00 
  2.72000e-01  4.99943e+00  0.00000e+00 -6.95909e-02  0.00000e+00  2.04556e-02  0.00000e+00 
  2.73000e-01  4.99945e+00  0.00000e+00 -6.84271e-02  0.00000e+00  2.01168e-02  0.00000e+00 
  2.74000e-01  4.99946e+00  0.00000e+00 -6.72352e-02  0.00000e+00  1.97694e-02  0.00000e+00 
  2.75000e-01  4.99948e+00  0.00000e+00 -6.60157e-02  0.00000e+00  1.94136e-02  0.00000e+00 
  2.76000e-01  4.99950e+00  0.00000e+00 -6.47695e-02  0.00000e+00  1.90496e-02  0.00000e+00 
  2.77000e-01  4.99952e+00  0.00000e+00 -6.34973e-02  0.00000e+00  1.86777e-02  0.00000e+00 
  2.78000e-01  4.99954e+00  0.00000e+00 -6.21999e-02  0.00000e+00  1.82981e-02  0.00000e+00 
  2.79000e-01  4.99956e+00  0.00000e+00 -6.08779e-02  0.00000e+00  1.79110e-02  0.00000e+00 
  2.80000e-01  4.99958e+00  0.00000e+00 -5.95321e-02  0.00000e+00  1.75167e-02  0.00000e+00 
  2.81000e-01  4.99960e+00  0.00000e+00 -5.81633e-02  0.00000e+00  1.71154e-02  0.00000e+00 
  2.82000e-01  4.99962e+00  0.00000e+00 -5.67722e-02  0.00000e+00  1.67074e-02  0.00000e+00 
  2.83000e-01  4.99964e+00  0.00000e+00 -5.53594e-02  0.00000e+00  1.62929e-02  0.00000e+00 
  2.84000e-01  4.99966e+00  0.00000e+00 -5.39257e-02  0.00000e+00  1.58721e-02  0.00000e+00 
  2.85000e-01  4.99967e+00  0.00000e+00 -5.24717e-02  0.00000e+00  1.54453e-02  0.00000e+00 
  2.86000e-01  4.99969e+00  0.00000e+00 -5.09982e-02  0.00000e+00  1.50127e-02  0.00000e+00 
  2.87000e-01  4.99971e+00  0.00000e+00 -4.95057e-02  0.00000e+00  1.45744e-02  0.00000e+00 
  2.88000e-01  4.99973e+00  0.00000e+00 -4.79947e-02  0.00000e+00  1.41306e-02  0.00000e+00 
  2.89000e-01  4.99974e+00  0.00000e+00 -4.64659e-02  0.00000e+00  1.36813e-02  0.00000e+00 
  2.90000e-01  4.99976e+00  0.00000e+00 -4.49198e-02  0.00000e+00  1.32268e-02  0.00000e+00 
  2.91000e-01  4.99978e+00  0.00000e+00 -4.33569e-02  0.00000e+00  1.27671e-02  0.00000e+00 
  2.92000e-01  4.99979e+00  0.00000e+00 -4.17776e-02  0.00000e+00  1.23023e-02  0.00000e+00 
  2.93000e-01  4.99981e+00  0.00000e+00 -4.01826e-02  0.00000e+00  1.18325e-02  0.00000e+00 
  2.94000e-01  4.99982e+00  0.00000e+00 -3.85722e-02  0.00000e+00  1.13579e-02  0.00000e+00 
  2.95000e-01  4.99984e+00  0.00000e+00 -3.69469e-02  0.00000e+00  1.08786e-02  0.00000e+00 
  2.96000e-01  4.99985e+00  0.00000e+00 -3.53073e-02  0.00000e+00  1.03947e-02  0.00000e+00 
  2.97000e-01  4.99987e+00  0.00000e+00 -3.36538e-02  0.00000e+00  9.90622e-03  0.00000e+00 
  2.98000e-01  4.99988e+00  0.00000e+00 -3.19868e-02  0.00000e+00  9.41341e-03  0.00000e+00 
  2.99000e-01  4.99989e+00  0.00000e+00 -3.03068e-02  0.00000e+00  8.91636e-03  0.00000e+00 
  3.00000e-01  4.99990e+00  0.00000e+00 -2.86144e-02  0.00000e+00  8.41523e-03  0.00000e+00 
  3.01000e-01  4.99991e+00  0.00000e+00 -2.69099e-02  0.00000e+00  7.91021e-03  0.00000e+00 
  3.02000e-01  4.99993e+00  0.00000e+00 -2.51939e-02  0.00000e+00  7.40149e-03  0.00000e+00 
  3.03000e-01  4.99994e+00  0.00000e+00 -2.34668e-02  0.00000e+00  6.88926e-03  0.00000e+00 
  3.04000e-01  4.99994e+00  0.00000e+00 -2.17292e-02  0.00000e+00  6.37372e-03  0.00000e+00 
  3.05000e-01  4.99995e+00  0.00000e+00 -1.99815e-02  0.00000e+00  5.85504e-03  0.00000e+00 
  3.06000e-01  4.99996e+00  0.00000e+00 -1.82240e-02  0.00000e+00  5.33338e-03  0.00000e+00 
  3.07000e-01  4.99997e+00  0.00000e+00 -1.64573e-02  0.00000e+00  4.80890e-03  0.00000e+00 
  3.08000e-01  4.99998e+00  0.00000e+00 -1.46817e-02  0.00000e+00  4.28172e-03  0.00000e+00 
  3.09000e-01  4.99998e+00  0.00000e+00 -1.28975e-02  0.00000e+00  3.75196e-03  0.00000e+00 
  3.10000e-01  4.99999e+00  0.00000e+00 -1.11051e-02  0.00000e+00  3.21975e-03  0.00000e+00 
  3.11000e-01  4.99999e+00  0.00000e+00 -9.30474e-03  0.00000e+00  2.68519e-03  0.00000e+00 
  3.12000e-01  4.99999e+00  0.00000e+00 -7.49683e-03  0.00000e+00  2.14837e-03  0.00000e+00 
  3.13000e-01  5.00000e+00  0.00000e+00 -5.68159e-03  0.00000e+00  1.60936e-03  0.00000e+00 
  3.14000e-01  5.00000e+00  0.00000e+00 -3.85924e-03  0.00000e+00  1.06820e-03  0.00000e+00 
  3.15000e-01  5.00000e+00  0.00000e+00 -2.03002e-03  0.00000e+00  5.24909e-04  0.00000e+00 
  3.16000e-01  5.00000e+00  0.00000e+00 -1.94119e-04  0.00000e+00 -2.04830e-05  0.00000e+00 
  3.17000e-01  5.00000e+00  0.00000e+00  1.64825e-03  0.00000e+00 -5.67956e-04  0.00000e+00 
  3.18000e-01  5.00000e+00  0.00000e+00  3.49687e-03  0.00000e+00 -1.11747e-03  0.00000e+00 
  3.19000e-01  5.00000e+00  0.00000e+00  5.35152e-03  0.00000e+00 -1.66898e-03  0.00000e+00 
  3.20000e-01  4.99999e+00  0.00000e+00  7.21197e-03  0.00000e+00 -2.22241e-03  0.00000e+00 