TITLE="Wing-tip dynamic response"
VARIABLES="T" "PX" "PY" "PZ" "RX" "RY" "RZ"
ZONE I=2001 T="dyn"
  0.00000e+00  5.00000e+00  0.00000e+00  0.00000e+00  0.00000e+00  0.00000e+00  0.00000e+00 
  1.00000e-03  5.00000e+00  0.00000e+00  1.10469e-08  0.00000e+00 -1.89213e-08  0.00000e+00 
  2.00000e-03  5.00000e+00  0.00000e+00  7.70088e-08  0.00000e+00 -1.14986e-07  0.00000e+00 
  3.00000e-03  5.00000e+00  0.00000e+00  2.79594e-07  0.00000e+00 -3.66633e-07  0.00000e+00 
  4.00000e-03  5.00000e+00  0.00000e+00  7.27386e-07  0.00000e+00 -8.52146e-07  0.00000e+00 
  5.00000e-03  5.00000e+00  0.00000e+00  1.54909e-06  0.00000e+00 -1.64966e-06  0.00000e+00 
  6.00000e-03  5.00000e+00  0.00000e+00  2.89069e-06  0.00000e+00 -2.83700e-06  0.00000e+00 
  7.00000e-03  5.00000e+00  0.00000e+00  4.91319e-06  0.00000e+00 -4.49151e-06  0.00000e+00 
  8.00000e-03  5.00000e+00  0.00000e+00  7.79087e-06  0.00000e+00 -6.68922e-06  0.00000e+00 
  9.00000e-03  5.00000e+00  0.00000e+00  1.17101e-05  0.00000e+00 -9.50418e-06  0.00000e+00 
  1.00000e-02  5.00000e+00  0.00000e+00  1.68704e-05  0.00000e+00 -1.30108e-05  0.00000e+00 
  1.10000e-02  5.00000e+00  0.00000e+00  2.34873e-05  0.00000e+00 -1.72933e-05  0.00000e+00 
  1.20000e-02  5.00000e+00  0.00000e+00  3.17943e-05  0.00000e+00 -2.24547e-05  0.00000e+00 
  1.30000e-02  5.00000e+00  0.00000e+00  4.20312e-05  0.00000e+00 -2.86045e-05  0.00000e+00 
  1.40000e-02  5.00000e+00  0.00000e+00  5.44227e-05  0.00000e+00 -3.58174e-05  0.00000e+00 
  1.50000e-02  5.00000e+00  0.00000e+00  6.91650e-05  0.00000e+00 -4.41087e-05  0.00000e+00 
  1.60000e-02  5.00000e+00  0.00000e+00  8.64394e-05  0.00000e+00 -5.34612e-05  0.00000e+00 
  1.70000e-02  5.00000e+00  0.00000e+00  1.06433e-04  0.00000e+00 -6.38665e-05  0.00000e+00 
  1.80000e-02  5.00000e+00  0.00000e+00  1.29347e-04  0.00000e+00 -7.53250e-05  0.00000e+00 
  1.90000e-02  5.00000e+00  0.00000e+00  1.55391e-04  0.00000e+00 -8.78361e-05  0.00000e+00 
  2.00000e-02  5.00000e+00  0.00000e+00  1.84800e-04  0.00000e+00 -1.01417e-04  0.00000e+00 
  2.10000e-02  5.00000e+00  0.00000e+00  2.17835e-04  0.00000e+00 -1.16113e-04  0.00000e+00 
  2.20000e-02  5.00000e+00  0.00000e+00  2.54778e-04  0.00000e+00 -1.31985e-04  0.00000e+00 
  2.30000e-02  5.00000e+00  0.00000e+00  2.95935e-04  0.00000e+00 -1.49106e-04  0.00000e+00 
  2.40000e-02  5.00000e+00  0.00000e+00  3.41617e-04  0.00000e+00 -1.67552e-04  0.00000e+00 
  2.50000e-02  5.00000e+00  0.00000e+00  3.92143e-04  0.00000e+00 -1.87376e-04  0.00000e+00 
  2.60000e-02  5.00000e+00  0.00000e+00  4.47843e-04  0.00000e+00 -2.08630e-04  0.00000e+00 
  2.70000e-02  5.00000e+00  0.00000e+00  5.09083e-04  0.00000e+00 -2.31409e-04  0.00000e+00 
  2.80000e-02  5.00000e+00  0.00000e+00  5.76267e-04  0.00000e+00 -2.55861e-04  0.00000e+00 
  2.90000e-02  5.00000e+00  0.00000e+00  6.49829e-04  0.00000e+00 -2.82160e-04  0.00000e+00 
  3.00000e-02  5.00000e+00  0.00000e+00  7.30208e-04  0.00000e+00 -3.10483e-04  0.00000e+00 
  3.10000e-02  5.00000e+00  0.00000e+00  8.17847e-04  0.00000e+00 -3.41003e-04  0.00000e+00 
  3.20000e-02  5.00000e+00  0.00000e+00  9.13184e-04  0.00000e+00 -3.73897e-04  0.00000e+00 
  3.30000e-02  5.00000e+00  0.00000e+00  1.01664e-03  0.00000e+00 -4.09323e-04  0.00000e+00 
  3.40000e-02  5.00000e+00  0.00000e+00  1.12861e-03  0.00000e+00 -4.47399e-04  0.00000e+00 
  3.50000e-02  5.00000e+00  0.00000e+00  1.24946e-03  0.00000e+00 -4.88217e-04  0.00000e+00 
  3.60000e-02  5.00000e+00  0.00000e+00  1.37954e-03  0.00000e+00 -5.31852e-04  0.00000e+00 
  3.70000e-02  5.00000e+00  0.00000e+00  1.51918e-03  0.00000e+00 -5.78377e-04  0.00000e+00 
  3.80000e-02  5.00000e+00  0.00000e+00  1.66870e-03  0.00000e+00 -6.27889e-04  0.00000e+00 
  3.90000e-02  5.00000e+00  0.00000e+00  1.82845e-03  0.00000e+00 -6.80487e-04  0.00000e+00 
  4.00000e-02  5.00000e+00  0.00000e+00  1.99868e-03  0.00000e+00 -7.36234e-04  0.00000e+00 
  4.10000e-02  5.00000e+00  0.00000e+00  2.17966e-03  0.00000e+00 -7.95140e-04  0.00000e+00 
  4.20000e-02  5.00000e+00  0.00000e+00  2.37160e-03  0.00000e+00 -8.57201e-04  0.00000e+00 
  4.30000e-02  5.00000e+00  0.00000e+00  2.57470e-03  0.00000e+00 -9.22412e-04  0.00000e+00 
  4.40000e-02  5.00000e+00  0.00000e+00  2.78914e-03  0.00000e+00 -9.90751e-04  0.00000e+00 
  4.50000e-02  5.00000e+00  0.00000e+00  3.01510e-03  0.00000e+00 -1.06219e-03  0.00000e+00 
  4.60000e-02  5.00000e+00  0.00000e+00  3.25275e-03  0.00000e+00 -1.13674e-03  0.00000e+00 
  4.70000e-02  5.00000e+00  0.00000e+00  3.50229e-03  0.00000e+00 -1.21441e-03  0.00000e+00 
  4.80000e-02  5.00000e+00  0.00000e+00  3.76393e-03  0.00000e+00 -1.29528e-03  0.00000e+00 
  4.90000e-02  5.00000e+00  0.00000e+00  4.03787e-03  0.00000e+00 -1.37944e-03  0.00000e+00 
  5.00000e-02  5.00000e+00  0.00000e+00  4.32431e-03  0.00000e+00 -1.46695e-03  0.00000e+00 
  5.10000e-02  5.00000e+00  0.00000e+00  4.62341e-03  0.00000e+00 -1.55786e-03  0.00000e+00 
  5.20000e-02  5.00000e+00  0.00000e+00  4.93532e-03  0.00000e+00 -1.65219e-03  0.00000e+00 
  5.30000e-02  5.00000e+00  0.00000e+00  5.26018e-03  0.00000e+00 -1.75001e-03  0.00000e+00 
  5.40000e-02  5.00000e+00  0.00000e+00  5.59813e-03  0.00000e+00 -1.85138e-03  0.00000e+00 
  5.50000e-02  5.00000e+00  0.00000e+00  5.94929e-03  0.00000e+00 -1.95637e-03  0.00000e+00 
  5.60000e-02  5.00000e+00  0.00000e+00  6.31377e-03  0.00000e+00 -2.06506e-03  0.00000e+00 
  5.70000e-02  4.99999e+00  0.00000e+00  6.69165e-03  0.00000e+00 -2.17752e-03  0.00000e+00 
  5.80000e-02  4.99999e+00  0.00000e+00  7.08297e-03  0.00000e+00 -2.29381e-03  0.00000e+00 
  5.90000e-02  4.99999e+00  0.00000e+00  7.48773e-03  0.00000e+00 -2.41398e-03  0.00000e+00 
  6.00000e-02  4.99999e+00  0.00000e+00  7.90587e-03  0.00000e+00 -2.53798e-03  0.00000e+00 
  6.10000e-02  4.99999e+00  0.00000e+00  8.33725e-03  0.00000e+00 -2.66575e-03  0.00000e+00 
  6.20000e-02  4.99999e+00  0.00000e+00  8.78171e-03  0.00000e+00 -2.79718e-03  0.00000e+00 
  6.30000e-02  4.99999e+00  0.00000e+00  9.23902e-03  0.00000e+00 -2.93217e-03  0.00000e+00 
  6.40000e-02  4.99999e+00  0.00000e+00  9.70896e-03  0.00000e+00 -3.07062e-03  0.00000e+00 
  6.50000e-02  4.99999e+00  0.00000e+00  1.01913e-02  0.00000e+00 -3.21243e-03  0.00000e+00 
  6.60000e-02  4.99999e+00  0.00000e+00  1.06857e-02  0.00000e+00 -3.35749e-03  0.00000e+00 
  6.70000e-02  4.99998e+00  0.00000e+00  1.11918e-02  0.00000e+00 -3.50565e-03  0.00000e+00 
  6.80000e-02  4.99998e+00  0.00000e+00  1.17093e-02  0.00000e+00 -3.65677e-03  0.00000e+00 
  6.90000e-02  4.99998e+00  0.00000e+00  1.22377e-02  0.00000e+00 -3.81070e-03  0.00000e+00 
  7.00000e-02  4.99998e+00  0.00000e+00  1.27768e-02  0.00000e+00 -3.96727e-03  0.00000e+00 
  7.10000e-02  4.99998e+00  0.00000e+00  1.33259e-02  0.00000e+00 -4.12628e-03  0.00000e+00 
  7.20000e-02  4.99998e+00  0.00000e+00  1.38847e-02  0.00000e+00 -4.28757e-03  0.00000e+00 
  7.30000e-02  4.99997e+00  0.00000e+00  1.44527e-02  0.00000e+00 -4.45102e-03  0.00000e+00 
  7.40000e-02  4.99997e+00  0.00000e+00  1.50295e-02  0.00000e+00 -4.61654e-03  0.00000e+00 
  7.50000e-02  4.99997e+00  0.00000e+00  1.56146e-02  0.00000e+00 -4.78406e-03  0.00000e+00 
  7.60000e-02  4.99997e+00  0.00000e+00  1.62075e-02  0.00000e+00 -4.95350e-03  0.00000e+00 
  7.70000e-02  4.99997e+00  0.00000e+00  1.68079e-02  0.00000e+00 -5.12474e-03  0.00000e+00 
  7.80000e-02  4.99996e+00  0.00000e+00  1.74150e-02  0.00000e+00 -5.29767e-03  0.00000e+00 
  7.90000e-02  4.99996e+00  0.00000e+00  1.80284e-02  0.00000e+00 -5.47215e-03  0.00000e+00 
  8.00000e-02  4.99996e+00  0.00000e+00  1.86475e-02  0.00000e+00 -5.64805e-03  0.00000e+00 
  8.10000e-02  4.99996e+00  0.00000e+00  1.92716e-02  0.00000e+00 -5.82520e-03  0.00000e+00 
  8.20000e-02  4.99995e+00  0.00000e+00  1.99001e-02  0.00000e+00 -6.00344e-03  0.00000e+00 
  8.30000e-02  4.99995e+00  0.00000e+00  2.05323e-02  0.00000e+00 -6.18260e-03  0.00000e+00 
  8.40000e-02  4.99995e+00  0.00000e+00  2.11675e-02  0.00000e+00 -6.36254e-03  0.00000e+00 
  8.50000e-02  4.99994e+00  0.00000e+00  2.18050e-02  0.00000e+00 -6.54306e-03  0.00000e+00 
  8.60000e-02  4.99994e+00  0.00000e+00  2.24439e-02  0.00000e+00 -6.72392e-03  0.00000e+00 
  8.70000e-02  4.99994e+00  0.00000e+00  2.30833e-02  0.00000e+00 -6.90482e-03  0.00000e+00 
  8.80000e-02  4.99993e+00  0.00000e+00  2.37224e-02  0.00000e+00 -7.08543e-03  0.00000e+00 
  8.90000e-02  4.99993e+00  0.00000e+00  2.43602e-02  0.00000e+00 -7.26544e-03  0.00000e+00 
  9.00000e-02  4.99993e+00  0.00000e+00  2.49959e-02  0.00000e+00 -7.44452e-03  0.00000e+00 
  9.10000e-02  4.99992e+00  0.00000e+00  2.56283e-02  0.00000e+00 -7.62238e-03  0.00000e+00 
  9.20000e-02  4.99992e+00  0.00000e+00  2.62566e-02  0.00000e+00 -7.79869e-03  0.00000e+00 
  9.30000e-02  4.99991e+00  0.00000e+00  2.68799e-02  0.00000e+00 -7.97318e-03  0.00000e+00 
  9.40000e-02  4.99991e+00  0.00000e+00  2.74971e-02  0.00000e+00 -8.14558e-03  0.00000e+00 
  9.50000e-02  4.99991e+00  0.00000e+00  2.81073e-02  0.00000e+00 -8.31562e-03  0.00000e+00 
  9.60000e-02  4.99990e+00  0.00000e+00  2.87095e-02  0.00000e+00 -8.48300e-03  0.00000e+00 
  9.70000e-02  4.99990e+00  0.00000e+00  2.93028e-02  0.00000e+00 -8.64741e-03  0.00000e+00 
  9.80000e-02  4.99989e+00  0.00000e+00  2.98862e-02  0.00000e+00 -8.80857e-03  0.00000e+00 
  9.90000e-02  4.99989e+00  0.00000e+00  3.04587e-02  0.00000e+00 -8.96624e-03  0.00000e+00 
  1.00000e-01  4.99989e+00  0.00000e+00  3.10195e-02  0.00000e+00 -9.12022e-03  0.00000e+00 
  1.01000e-01  4.99988e+00  0.00000e+00  3.15676e-02  0.00000e+00 -9.27032e-03  0.00000e+00 
  1.02000e-01  4.99988e+00  0.00000e+00  3.21020e-02  0.00000e+00 -9.41636e-03  0.00000e+00 
  1.03000e-01  4.99987e+00  0.00000e+00  3.26220e-02  0.00000e+00 -9.55812e-03  0.00000e+00 
  1.04000e-01  4.99987e+00  0.00000e+00  3.31266e-02  0.00000e+00 -9.69542e-03  0.00000e+00 
  1.05000e-01  4.99987e+00  0.00000e+00  3.36148e-02  0.00000e+00 -9.82800e-03  0.00000e+00 
  1.06000e-01  4.99986e+00  0.00000e+00  3.40857e-02  0.00000e+00 -9.95562e-03  0.00000e+00 
  1.07000e-01  4.99986e+00  0.00000e+00  3.45383e-02  0.00000e+00 -1.00780e-02  0.00000e+00 
  1.08000e-01  4.99986e+00  0.00000e+00  3.49715e-02  0.00000e+00 -1.01948e-02  0.00000e+00 
  1.09000e-01  4.99985e+00  0.00000e+00  3.53846e-02  0.00000e+00 -1.03058e-02  0.00000e+00 
  1.10000e-01  4.99985e+00  0.00000e+00  3.57763e-02  0.00000e+00 -1.04107e-02  0.00000e+00 
  1.11000e-01  4.99985e+00  0.00000e+00  3.61459e-02  0.00000e+00 -1.05093e-02  0.00000e+00 
  1.12000e-01  4.99984e+00  0.00000e+00  3.64923e-02  0.00000e+00 -1.06013e-02  0.00000e+00 
  1.13000e-01  4.99984e+00  0.00000e+00  3.68146e-02  0.00000e+00 -1.06863e-02  0.00000e+00 
  1.14000e-01  4.99984e+00  0.00000e+00  3.71116e-02  0.00000e+00 -1.07639e-02  0.00000e+00 
  1.15000e-01  4.99984e+00  0.00000e+00  3.73826e-02  0.00000e+00 -1.08340e-02  0.00000e+00 
  1.16000e-01  4.99983e+00  0.00000e+00  3.76264e-02  0.00000e+00 -1.08961e-02  0.00000e+00 
  1.17000e-01  4.99983e+00  0.00000e+00  3.78422e-02  0.00000e+00 -1.09499e-02  0.00000e+00 
  1.18000e-01  4.99983e+00  0.00000e+00  3.80292e-02  0.00000e+00 -1.09952e-02  0.00000e+00 
  1.19000e-01  4.99983e+00  0.00000e+00  3.81865e-02  0.00000e+00 -1.10317e-02  0.00000e+00 
  1.20000e-01  4.99983e+00  0.00000e+00  3.83133e-02  0.00000e+00 -1.10593e-02  0.00000e+00 
  1.21000e-01  4.99983e+00  0.00000e+00  3.84089e-02  0.00000e+00 -1.10778e-02  0.00000e+00 
  1.22000e-01  4.99983e+00  0.00000e+00  3.84727e-02  0.00000e+00 -1.10871e-02  0.00000e+00 
  1.23000e-01  4.99983e+00  0.00000e+00  3.85039e-02  0.00000e+00 -1.10869e-02  0.00000e+00 
  1.24000e-01  4.99983e+00  0.00000e+00  3.85019e-02  0.00000e+00 -1.10770e-02  0.00000e+00 
  1.25000e-01  4.99983e+00  0.00000e+00  3.84661e-02  0.00000e+00 -1.10575e-02  0.00000e+00 
  1.26000e-01  4.99983e+00  0.00000e+00  3.83960e-02  0.00000e+00 -1.10280e-02  0.00000e+00 
  1.27000e-01  4.99983e+00  0.00000e+00  3.82910e-02  0.00000e+00 -1.09887e-02  0.00000e+00 
  1.28000e-01  4.99983e+00  0.00000e+00  3.81508e-02  0.00000e+00 -1.09393e-02  0.00000e+00 
  1.29000e-01  4.99983e+00  0.00000e+00  3.79747e-02  0.00000e+00 -1.08798e-02  0.00000e+00 
  1.30000e-01  4.99983e+00  0.00000e+00  3.77625e-02  0.00000e+00 -1.08102e-02  0.00000e+00 
  1.31000e-01  4.99983e+00  0.00000e+00  3.75138e-02  0.00000e+00 -1.07304e-02  0.00000e+00 
  1.32000e-01  4.99984e+00  0.00000e+00  3.72280e-02  0.00000e+00 -1.06402e-02  0.00000e+00 
  1.33000e-01  4.99984e+00  0.00000e+00  3.69048e-02  0.00000e+00 -1.05395e-02  0.00000e+00 
  1.34000e-01  4.99984e+00  0.00000e+00  3.65438e-02  0.00000e+00 -1.04282e-02  0.00000e+00 
  1.35000e-01  4.99985e+00  0.00000e+00  3.61448e-02  0.00000e+00 -1.03060e-02  0.00000e+00 
  1.36000e-01  4.99985e+00  0.00000e+00  3.57073e-02  0.00000e+00 -1.01730e-02  0.00000e+00 
  1.37000e-01  4.99985e+00  0.00000e+00  3.52312e-02  0.00000e+00 -1.00290e-02  0.00000e+00 
  1.38000e-01  4.99986e+00  0.00000e+00  3.47162e-02  0.00000e+00 -9.87396e-03  0.00000e+00 
  1.39000e-01  4.99986e+00  0.00000e+00  3.41622e-02  0.00000e+00 -9.70777e-03  0.00000e+00 
  1.40000e-01  4.99987e+00  0.00000e+00  3.35691e-02  0.00000e+00 -9.53039e-03  0.00000e+00 
  1.41000e-01  4.99987e+00  0.00000e+00  3.29367e-02  0.00000e+00 -9.34174e-03  0.00000e+00 
  1.42000e-01  4.99988e+00  0.00000e+00  3.22651e-02  0.00000e+00 -9.14176e-03  0.00000e+00 
  1.43000e-01  4.99988e+00  0.00000e+00  3.15542e-02  0.00000e+00 -8.93043e-03  0.00000e+00 
  1.44000e-01  4.99989e+00  0.00000e+00  3.08041e-02  0.00000e+00 -8.70777e-03  0.00000e+00 
  1.45000e-01  4.99989e+00  0.00000e+00  3.00151e-02  0.00000e+00 -8.47385e-03  0.00000e+00 
  1.46000e-01  4.99990e+00  0.00000e+00  2.91874e-02  0.00000e+00 -8.22883e-03  0.00000e+00 
  1.47000e-01  4.99991e+00  0.00000e+00  2.83212e-02  0.00000e+00 -7.97286e-03  0.00000e+00 
  1.48000e-01  4.99991e+00  0.00000e+00  2.74171e-02  0.00000e+00 -7.70608e-03  0.00000e+00 
  1.49000e-01  4.99992e+00  0.00000e+00  2.64753e-02  0.00000e+00 -7.42862e-03  0.00000e+00 
  1.50000e-01  4.99992e+00  0.00000e+00  2.54963e-02  0.00000e+00 -7.14066e-03  0.00000e+00 
  1.51000e-01  4.99993e+00  0.00000e+00  2.44805e-02  0.00000e+00 -6.84237e-03  0.00000e+00 
  1.52000e-01  4.99994e+00  0.00000e+00  2.34285e-02  0.00000e+00 -6.53391e-03  0.00000e+00 
  1.53000e-01  4.99994e+00  0.00000e+00  2.23409e-02  0.00000e+00 -6.21545e-03  0.00000e+00 
  1.54000e-01  4.99995e+00  0.00000e+00  2.12182e-02  0.00000e+00 -5.88720e-03  0.00000e+00 
  1.55000e-01  4.99995e+00  0.00000e+00  2.00610e-02  0.00000e+00 -5.54939e-03  0.00000e+00 
  1.56000e-01  4.99996e+00  0.00000e+00  1.88701e-02  0.00000e+00 -5.20223e-03  0.00000e+00 
  1.57000e-01  4.99996e+00  0.00000e+00  1.76461e-02  0.00000e+00 -4.84592e-03  0.00000e+00 
  1.58000e-01  4.99997e+00  0.00000e+00  1.63896e-02  0.00000e+00 -4.48062e-03  0.00000e+00 
  1.59000e-01  4.99997e+00  0.00000e+00  1.51015e-02  0.00000e+00 -4.10644e-03  0.00000e+00 
  1.60000e-01  4.99998e+00  0.00000e+00  1.37823e-02  0.00000e+00 -3.72354e-03  0.00000e+00 
  1.61000e-01  4.99998e+00  0.00000e+00  1.24328e-02  0.00000e+00 -3.33208e-03  0.00000e+00 
  1.62000e-01  4.99999e+00  0.00000e+00  1.10539e-02  0.00000e+00 -2.93226e-03  0.00000e+00 
  1.63000e-01  4.99999e+00  0.00000e+00  9.64645e-03  0.00000e+00 -2.52426e-03  0.00000e+00 
  1.64000e-01  4.99999e+00  0.00000e+00  8.21132e-03  0.00000e+00 -2.10834e-03  0.00000e+00 
  1.65000e-01  5.00000e+00  0.00000e+00  6.74949e-03  0.00000e+00 -1.68475e-03  0.00000e+00 
  1.66000e-01  5.00000e+00  0.00000e+00  5.26196e-03  0.00000e+00 -1.25380e-03  0.00000e+00 
  1.67000e-01  5.00000e+00  0.00000e+00  3.74977e-03  0.00000e+00 -8.15746e-04  0.00000e+00 
  1.68000e-01  5.00000e+00  0.00000e+00  2.21398e-03  0.00000e+00 -3.70882e-04  0.00000e+00 
  1.69000e-01  5.00000e+00  0.00000e+00  6.55724e-04  0.00000e+00  8.05023e-05  0.00000e+00 
  1.70000e-01  5.00000e+00  0.00000e+00 -9.23840e-04  0.00000e+00  5.38067e-04  0.00000e+00 
  1.71000e-01  5.00000e+00  0.00000e+00 -2.52348e-03  0.00000e+00  1.00142e-03  0.00000e+00 
  1.72000e-01  5.00000e+00  0.00000e+00 -4.14190e-03  0.00000e+00  1.47011e-03  0.00000e+00 
  1.73000e-01  5.00000e+00  0.00000e+00 -5.77780e-03  0.00000e+00  1.94373e-03  0.00000e+00 
  1.74000e-01  4.99999e+00  0.00000e+00 -7.42985e-03  0.00000e+00  2.42182e-03  0.00000e+00 
  1.75000e-01  4.99999e+00  0.00000e+00 -9.09670e-03  0.00000e+00  2.90397e-03  0.00000e+00 
  1.76000e-01  4.99999e+00  0.00000e+00 -1.07770e-02  0.00000e+00  3.38974e-03  0.00000e+00 
  1.77000e-01  4.99998e+00  0.00000e+00 -1.24694e-02  0.00000e+00  3.87875e-03  0.00000e+00 
  1.78000e-01  4.99998e+00  0.00000e+00 -1.41726e-02  0.00000e+00  4.37063e-03  0.00000e+00 
  1.79000e-01  4.99997e+00  0.00000e+00 -1.58853e-02  0.00000e+00  4.86502e-03  0.00000e+00 
  1.80000e-01  4.99996e+00  0.00000e+00 -1.76061e-02  0.00000e+00  5.36153e-03  0.00000e+00 
  1.81000e-01  4.99996e+00  0.00000e+00 -1.93335e-02  0.00000e+00  5.85979e-03  0.00000e+00 
  1.82000e-01  4.99995e+00  0.00000e+00 -2.10664e-02  0.00000e+00  6.35938e-03  0.00000e+00 
  1.83000e-01  4.99994e+00  0.00000e+00 -2.28033e-02  0.00000e+00  6.85995e-03  0.00000e+00 
  1.84000e-01  4.99993e+00  0.00000e+00 -2.45428e-02  0.00000e+00  7.36117e-03  0.00000e+00 
  1.85000e-01  4.99992e+00  0.00000e+00 -2.62837e-02  0.00000e+00  7.86272e-03  0.00000e+00 
  1.86000e-01  4.99991e+00  0.00000e+00 -2.80247e-02  0.00000e+00  8.36429e-03  0.00000e+00 
  1.87000e-01  4.99990e+00  0.00000e+00 -2.97643e-02  0.00000e+00  8.86555e-03  0.00000e+00 
  1.88000e-01  4.99988e+00  0.00000e+00 -3.15013e-02  0.00000e+00  9.36619e-03  0.00000e+00 
  1.89000e-01  4.99987e+00  0.00000e+00 -3.32343e-02  0.00000e+00  9.86585e-03  0.00000e+00 
  1.90000e-01  4.99986e+00  0.00000e+00 -3.49619e-02  0.00000e+00  1.03641e-02  0.00000e+00 
  1.91000e-01  4.99984e+00  0.00000e+00 -3.66827e-02  0.00000e+00  1.08606e-02  0.00000e+00 
  1.92000e-01  4.99983e+00  0.00000e+00 -3.83952e-02  0.00000e+00  1.13549e-02  0.00000e+00 
  1.93000e-01  4.99981e+00  0.00000e+00 -4.00981e-02  0.00000e+00  1.18465e-02  0.00000e+00 
  1.94000e-01  4.99979e+00  0.00000e+00 -4.17899e-02  0.00000e+00  1.23350e-02  0.00000e+00 
  1.95000e-01  4.99978e+00  0.00000e+00 -4.34691e-02  0.00000e+00  1.28200e-02  0.00000e+00 
  1.96000e-01  4.99976e+00  0.00000e+00 -4.51345e-02  0.00000e+00  1.33011e-02  0.00000e+00 
  1.97000e-01  4.99974e+00  0.00000e+00 -4.67846e-02  0.00000e+00  1.37779e-02  0.00000e+00 
  1.98000e-01  4.99972e+00  0.00000e+00 -4.84179e-02  0.00000e+00  1.42499e-02  0.00000e+00 
  1.99000e-01  4.99970e+00  0.00000e+00 -5.00332e-02  0.00000e+00  1.47166e-02  0.00000e+00 
  2.00000e-01  4.99968e+00  0.00000e+00 -5.16289e-02  0.00000e+00  1.51776e-02  0.00000e+00 
  2.01000e-01  4.99967e+00  0.00000e+00 -5.32039e-02  0.00000e+00  1.56325e-02  0.00000e+00 
  2.02000e-01  4.99965e+00  0.00000e+00 -5.47567e-02  0.00000e+00  1.60809e-02  0.00000e+00 
  2.03000e-01  4.99963e+00  0.00000e+00 -5.62862e-02  0.00000e+00  1.65224e-02  0.00000e+00 
  2.04000e-01  4.99960e+00  0.00000e+00 -5.77912e-02  0.00000e+00  1.69567e-02  0.00000e+00 
  2.05000e-01  4.99958e+00  0.00000e+00 -5.92705e-02  0.00000e+00  1.73836e-02  0.00000e+00 
  2.06000e-01  4.99956e+00  0.00000e+00 -6.07231e-02  0.00000e+00  1.78028e-02  0.00000e+00 
  2.07000e-01  4.99954e+00  0.00000e+00 -6.21478e-02  0.00000e+00  1.82140e-02  0.00000e+00 
  2.08000e-01  4.99952e+00  0.00000e+00 -6.35437e-02  0.00000e+00  1.86169e-02  0.00000e+00 
  2.09000e-01  4.99950e+00  0.00000e+00 -6.49096e-02  0.00000e+00  1.90113e-02  0.00000e+00 
  2.10000e-01  4.99948e+00  0.00000e+00 -6.62446e-02  0.00000e+00  1.93968e-02  0.00000e+00 
  2.11000e-01  4.99946e+00  0.00000e+00 -6.75477e-02  0.00000e+00  1.97734e-02  0.00000e+00 
  2.12000e-01  4.99944e+00  0.00000e+00 -6.88181e-02  0.00000e+00  2.01406e-02  0.00000e+00 
  2.13000e-01  4.99942e+00  0.00000e+00 -7.00548e-02  0.00000e+00  2.04984e-02  0.00000e+00 
  2.14000e-01  4.99940e+00  0.00000e+00 -7.12569e-02  0.00000e+00  2.08465e-02  0.00000e+00 
  2.15000e-01  4.99938e+00  0.00000e+00 -7.24237e-02  0.00000e+00  2.11848e-02  0.00000e+00 
  2.16000e-01  4.99936e+00  0.00000e+00 -7.35542e-02  0.00000e+00  2.15128e-02  0.00000e+00 
  2.17000e-01  4.99934e+00  0.00000e+00 -7.46475e-02  0.00000e+00  2.18304e-02  0.00000e+00 
  2.18000e-01  4.99932e+00  0.00000e+00 -7.57029e-02  0.00000e+00  2.21373e-02  0.00000e+00 
  2.19000e-01  4.99930e+00  0.00000e+00 -7.67196e-02  0.00000e+00  2.24331e-02  0.00000e+00 
  2.20000e-01  4.99929e+00  0.00000e+00 -7.76967e-02  0.00000e+00  2.27175e-02  0.00000e+00 
  2.21000e-01  4.99927e+00  0.00000e+00 -7.86336e-02  0.00000e+00  2.29904e-02  0.00000e+00 
  2.22000e-01  4.99925e+00  0.00000e+00 -7.95295e-02  0.00000e+00  2.32516e-02  0.00000e+00 
  2.23000e-01  4.99924e+00  0.00000e+00 -8.03840e-02  0.00000e+00  2.35008e-02  0.00000e+00 
  2.24000e-01  4.99922e+00  0.00000e+00 -8.11963e-02  0.00000e+00  2.37378e-02  0.00000e+00 
  2.25000e-01  4.99920e+00  0.00000e+00 -8.19660e-02  0.00000e+00  2.39624e-02  0.00000e+00 
  2.26000e-01  4.99919e+00  0.00000e+00 -8.26926e-02  0.00000e+00  2.41746e-02  0.00000e+00 
  2.27000e-01  4.99918e+00  0.00000e+00 -8.33756e-02  0.00000e+00  2.43740e-02  0.00000e+00 
  2.28000e-01  4.99916e+00  0.00000e+00 -8.40146e-02  0.00000e+00  2.45606e-02  0.00000e+00 
  2.29000e-01  4.99915e+00  0.00000e+00 -8.46093e-02  0.00000e+00  2.47343e-02  0.00000e+00 
  2.30000e-01  4.99914e+00  0.00000e+00 -8.51596e-02  0.00000e+00  2.48951e-02  0.00000e+00 
  2.31000e-01  4.99913e+00  0.00000e+00 -8.56652e-02  0.00000e+00  2.50429e-02  0.00000e+00 
  2.32000e-01  4.99912e+00  0.00000e+00 -8.61259e-02  0.00000e+00  2.51780e-02  0.00000e+00 
  2.33000e-01  4.99911e+00  0.00000e+00 -8.65418e-02  0.00000e+00  2.53001e-02  0.00000e+00 
  2.34000e-01  4.99911e+00  0.00000e+00 -8.69126e-02  0.00000e+00  2.54093e-02  0.00000e+00 
  2.35000e-01  4.99910e+00  0.00000e+00 -8.72384e-02  0.00000e+00  2.55057e-02  0.00000e+00 
  2.36000e-01  4.99909e+00  0.00000e+00 -8.75191e-02  0.00000e+00  2.55893e-02  0.00000e+00 
  2.37000e-01  4.99909e+00  0.00000e+00 -8.77547e-02  0.00000e+00  2.56599e-02  0.00000e+00 
  2.38000e-01  4.99908e+00  0.00000e+00 -8.79452e-02  0.00000e+00  2.57177e-02  0.00000e+00 
  2.39000e-01  4.99908e+00  0.00000e+00 -8.80907e-02  0.00000e+00  2.57626e-02  0.00000e+00 
  2.40000e-01  4.99908e+00  0.00000e+00 -8.81913e-02  0.00000e+00  2.57947e-02  0.00000e+00 
  2.41000e-01  4.99908e+00  0.00000e+00 -8.82471e-02  0.00000e+00  2.58140e-02  0.00000e+00 
  2.42000e-01  4.99908e+00  0.00000e+00 -8.82581e-02  0.00000e+00  2.58206e-02  0.00000e+00 
  2.43000e-01  4.99908e+00  0.00000e+00 -8.82245e-02  0.00000e+00  2.58143e-02  0.00000e+00 
  2.44000e-01  4.99908e+00  0.00000e+00 -8.81464e-02  0.00000e+00  2.57951e-02  0.00000e+00 
  2.45000e-01  4.99908e+00  0.00000e+00 -8.80240e-02  0.00000e+00  2.57630e-02  0.00000e+00 
  2.46000e-01  4.99909e+00  0.00000e+00 -8.78575e-02  0.00000e+00  2.57180e-02  0.00000e+00 
  2.47000e-01  4.99909e+00  0.00000e+00 -8.76471e-02  0.00000e+00  2.56602e-02  0.00000e+00 
  2.48000e-01  4.99910e+00  0.00000e+00 -8.73932e-02  0.00000e+00  2.55895e-02  0.00000e+00 
  2.49000e-01  4.99910e+00  0.00000e+00 -8.70960e-02  0.00000e+00  2.55061e-02  0.00000e+00 
  2.50000e-01  4.99911e+00  0.00000e+00 -8.67560e-02  0.00000e+00  2.54101e-02  0.00000e+00 
  2.51000e-01  4.99912e+00  0.00000e+00 -8.63737e-02  0.00000e+00  2.53016e-02  0.00000e+00 
  2.52000e-01  4.99912e+00  0.00000e+00 -8.59494e-02  0.00000e+00  2.51807e-02  0.00000e+00 
  2.53000e-01  4.99913e+00  0.00000e+00 -8.54836e-02  0.00000e+00  2.50476e-02  0.00000e+00 
  2.54000e-01  4.99914e+00  0.00000e+00 -8.49769e-02  0.00000e+00  2.49024e-02  0.00000e+00 
  2.55000e-01  4.99916e+00  0.00000e+00 -8.44299e-02  0.00000e+00  2.47453e-02  0.00000e+00 
  2.56000e-01  4.99917e+00  0.00000e+00 -8.38431e-02  0.00000e+00  2.45765e-02  0.00000e+00 
  2.57000e-01  4.99918e+00  0.00000e+00 -8.32172e-02  0.00000e+00  2.43963e-02  0.00000e+00 
  2.58000e-01  4.99919e+00  0.00000e+00 -8.25529e-02  0.00000e+00  2.42049e-02  0.00000e+00 
  2.59000e-01  4.99921e+00  0.00000e+00 -8.18507e-02  0.00000e+00  2.40025e-02  0.00000e+00 
  2.60000e-01  4.99922e+00  0.00000e+00 -8.11115e-02  0.00000e+00  2.37894e-02  0.00000e+00 
  2.61000e-01  4.99924e+00  0.00000e+00 -8.03357e-02  0.00000e+00  2.35657e-02  0.00000e+00 
  2.62000e-01  4.99925e+00  0.00000e+00 -7.95241e-02  0.00000e+00  2.33316e-02  0.00000e+00 
  2.63000e-01  4.99927e+00  0.00000e+00 -7.86772e-02  0.00000e+00  2.30873e-02  0.00000e+00 
  2.64000e-01  4.99928e+00  0.00000e+00 -7.77957e-02  0.00000e+00  2.28328e-02  0.00000e+00 
  2.65000e-01  4.99930e+00  0.00000e+00 -7.68802e-02  0.00000e+00  2.25684e-02  0.00000e+00 
  2.66000e-01  4.99932e+00  0.00000e+00 -7.59313e-02  0.00000e+00  2.22942e-02  0.00000e+00 
  2.67000e-01  4.99933e+00  0.00000e+00 -7.49498e-02  0.00000e+00  2.20103e-02  0.00000e+00 
  2.68000e-01  4.99935e+00  0.00000e+00 -7.39362e-02  0.00000e+00  2.17170e-02  0.00000e+00 
  2.69000e-01  4.99937e+00  0.00000e+00 -7.28911e-02  0.00000e+00  2.14142e-02  0.00000e+00 
  2.70000e-01  4.99939e+00  0.00000e+00 -7.18151e-02  0.00000e+00  2.11022e-02  0.00000e+00 
  2.71000e-01  4.99941e+00  0.00000e+00 -7.07090e-02  0.00000e+00  2.07811e-02  0.00000e+00 
  2.72000e-01  4.99943e+00  0.00000e+00 -6.95733e-02  0.00000e+00  2.04510e-02  0.00000e+00 
  2.73000e-01  4.99945e+00  0.00000e+00 -6.84087e-02  0.00000e+00  2.01120e-02  0.00000e+00 
  2.74000e-01  4.99946e+00  0.00000e+00 -6.72159e-02  0.00000e+00  1.97643e-02  0.00000e+00 
  2.75000e-01  4.99948e+00  0.00000e+00 -6.59956e-02  0.00000e+00  1.94083e-02  0.00000e+00 
  2.76000e-01  4.99950e+00  0.00000e+00 -6.47486e-02  0.00000e+00  1.90440e-02  0.00000e+00 
  2.77000e-01  4.99952e+00  0.00000e+00 -6.34757e-02  0.00000e+00  1.86718e-02  0.00000e+00 
  2.78000e-01  4.99954e+00  0.00000e+00 -6.21775e-02  0.00000e+00  1.82919e-02  0.00000e+00 
  2.79000e-01  4.99956e+00  0.00000e+00 -6.08548e-02  0.00000e+00  1.79046e-02  0.00000e+00 
  2.80000e-01  4.99958e+00  0.00000e+00 -5.95083e-02  0.00000e+00  1.75101e-02  0.00000e+00 
  2.81000e-01  4.99960e+00  0.00000e+00 -5.81388e-02  0.00000e+00  1.71086e-02  0.00000e+00 
  2.82000e-01  4.99962e+00  0.00000e+00 -5.67471e-02  0.00000e+00  1.67004e-02  0.00000e+00 
  2.83000e-01  4.99964e+00  0.00000e+00 -5.53337e-02  0.00000e+00  1.62857e-02  0.00000e+00 
  2.84000e-01  4.99966e+00  0.00000e+00 -5.38995e-02  0.00000e+00  1.58647e-02  0.00000e+00 
  2.85000e-01  4.99967e+00  0.00000e+00 -5.24451e-02  0.00000e+00  1.54377e-02  0.00000e+00 
  2.86000e-01  4.99969e+00  0.00000e+00 -5.09712e-02  0.00000e+00  1.50050e-02  0.00000e+00 
  2.87000e-01  4.99971e+00  0.00000e+00 -4.94784e-02  0.00000e+00  1.45667e-02  0.00000e+00 
  2.88000e-01  4.99973e+00  0.00000e+00 -4.79673e-02  0.00000e+00  1.41229e-02  0.00000e+00 
  2.89000e-01  4.99974e+00  0.00000e+00 -4.64383e-02  0.00000e+00  1.36737e-02  0.00000e+00 
  2.90000e-01  4.99976e+00  0.00000e+00 -4.48921e-02  0.00000e+00  1.32192e-02  0.00000e+00 
  2.91000e-01  4.99978e+00  0.00000e+00 -4.33291e-02  0.00000e+00  1.27595e-02  0.00000e+00 
  2.92000e-01  4.99979e+00  0.00000e+00 -4.17498e-02  0.00000e+00  1.22947e-02  0.00000e+00 
  2.93000e-01  4.99981e+00  0.00000e+00 -4.01548e-02  0.00000e+00  1.18250e-02  0.00000e+00 
  2.94000e-01  4.99982e+00  0.00000e+00 -3.85445e-02  0.00000e+00  1.13505e-02  0.00000e+00 
  2.95000e-01  4.99984e+00  0.00000e+00 -3.69193e-02  0.00000e+00  1.08712e-02  0.00000e+00 
  2.96000e-01  4.99985e+00  0.00000e+00 -3.52798e-02  0.00000e+00  1.03873e-02  0.00000e+00 
  2.97000e-01  4.99987e+00  0.00000e+00 -3.36264e-02  0.00000e+00  9.89897e-03  0.00000e+00 
  2.98000e-01  4.99988e+00  0.00000e+00 -3.19596e-02  0.00000e+00  9.40622e-03  0.00000e+00 
  2.99000e-01  4.99989e+00  0.00000e+00 -3.02798e-02  0.00000e+00  8.90920e-03  0.00000e+00 
  3.00000e-01  4.99990e+00  0.00000e+00 -2.85875e-02  0.00000e+00  8.40807e-03  0.00000e+00 
  3.01000e-01  4.99992e+00  0.00000e+00 -2.68833e-02  0.00000e+00  7.90301e-03  0.00000e+00 
  3.02000e-01  4.99993e+00  0.00000e+00 -2.51675e-02  0.00000e+00  7.39427e-03  0.00000e+00 
  3.03000e-01  4.99994e+00  0.00000e+00 -2.34408e-02  0.00000e+00  6.88205e-03  0.00000e+00 
  3.04000e-01  4.99995e+00  0.00000e+00 -2.17035e-02  0.00000e+00  6.36655e-03  0.00000e+00 
  3.05000e-01  4.99995e+00  0.00000e+00 -1.99562e-02  0.00000e+00  5.84793e-03  0.00000e+00 
  3.06000e-01  4.99996e+00  0.00000e+00 -1.81992e-02  0.00000e+00  5.32638e-03  0.00000e+00 
  3.07000e-01  4.99997e+00  0.00000e+00 -1.64330e-02  0.00000e+00  4.80203e-03  0.00000e+00 
  3.08000e-01  4.99998e+00  0.00000e+00 -1.46580e-02  0.00000e+00  4.27500e-03  0.00000e+00 
  3.09000e-01  4.99998e+00  0.00000e+00 -1.28744e-02  0.00000e+00  3.74540e-03  0.00000e+00 
  3.10000e-01  4.99999e+00  0.00000e+00 -1.10827e-02  0.00000e+00  3.21336e-03  0.00000e+00 
  3.11000e-01  4.99999e+00  0.00000e+00 -9.28312e-03  0.00000e+00  2.67900e-03  0.00000e+00 
  3.12000e-01  4.99999e+00  0.00000e+00 -7.47603e-03  0.00000e+00  2.14244e-03  0.00000e+00 
  3.13000e-01  5.00000e+00  0.00000e+00 -5.66168e-03  0.00000e+00  1.60375e-03  0.00000e+00 
  3.14000e-01  5.00000e+00  0.00000e+00 -3.84029e-03  0.00000e+00  1.06294e-03  0.00000e+00 
  3.15000e-01  5.00000e+00  0.00000e+00 -2.01206e-03  0.00000e+00  5.20023e-04  0.00000e+00 
  3.16000e-01  5.00000e+00  0.00000e+00 -1.77167e-04  0.00000e+00 -2.50120e-05  0.00000e+00 
  3.17000e-01  5.00000e+00  0.00000e+00  1.66418e-03  0.00000e+00 -5.72141e-04  0.00000e+00 
  3.18000e-01  5.00000e+00  0.00000e+00  3.51177e-03  0.00000e+00 -1.12133e-03  0.00000e+00 
  3.19000e-01  5.00000e+00  0.00000e+00  5.36541e-03  0.00000e+00 -1.67255e-03  0.00000e+00 
  3.20000e-01  4.99999e+00  0.00000e+00  7.22485e-03  0.00000e+00 -2.22571e-03  0.00000e+00 